title = "sample mesh"
Variables="x","y","p"
zone T="0",  i=102, j=22, f=point
0 0 0
0.15 0 0
0.45 0 0
0.75 0 0
1.05 0 0
1.35 0 0
1.65 0 0
1.95 0 0
2.25 0 0
2.55 0 0
2.85 0 0
3.15 0 0
3.45 0 0
3.75 0 0
4.05 0 0
4.35 0 0
4.65 0 0
4.95 0 0
5.25 0 0
5.55 0 0
5.85 0 0
6.15 0 0
6.45 0 0
6.75 0 0
7.05 0 0
7.35 0 0
7.65 0 0
7.95 0 0
8.25 0 0
8.55 0 0
8.85 0 0
9.15 0 0
9.45 0 0
9.75 0 0
10.05 0 0
10.35 0 0
10.65 0 0
10.95 0 0
11.25 0 0
11.55 0 0
11.85 0 0
12.15 0 0
12.45 0 0
12.75 0 0
13.05 0 0
13.35 0 0
13.65 0 0
13.95 0 0
14.25 0 0
14.55 0 0
14.85 0 0
15.15 0 0
15.45 0 0
15.75 0 0
16.05 0 0
16.35 0 0
16.65 0 0
16.95 0 0
17.25 0 0
17.55 0 0
17.85 0 0
18.15 0 0
18.45 0 0
18.75 0 0
19.05 0 0
19.35 0 0
19.65 0 0
19.95 0 0
20.25 0 0
20.55 0 0
20.85 0 0
21.15 0 0
21.45 0 0
21.75 0 0
22.05 0 0
22.35 0 0
22.65 0 0
22.95 0 0
23.25 0 0
23.55 0 0
23.85 0 0
24.15 0 0
24.45 0 0
24.75 0 0
25.05 0 0
25.35 0 0
25.65 0 0
25.95 0 0
26.25 0 0
26.55 0 0
26.85 0 0
27.15 0 0
27.45 0 0
27.75 0 0
28.05 0 0
28.35 0 0
28.65 0 0
28.95 0 0
29.25 0 0
29.55 0 0
29.85 0 0
30 0 0
0 0.175 0
0.15 0.175 0
0.45 0.175 0
0.75 0.175 0
1.05 0.175 0
1.35 0.175 0
1.65 0.175 0
1.95 0.175 0
2.25 0.175 0
2.55 0.175 0
2.85 0.175 0
3.15 0.175 0
3.45 0.175 0
3.75 0.175 0
4.05 0.175 0
4.35 0.175 0
4.65 0.175 0
4.95 0.175 0
5.25 0.175 0
5.55 0.175 0
5.85 0.175 0
6.15 0.175 0
6.45 0.175 0
6.75 0.175 0
7.05 0.175 0
7.35 0.175 0
7.65 0.175 0
7.95 0.175 0
8.25 0.175 0
8.55 0.175 0
8.85 0.175 0
9.15 0.175 0
9.45 0.175 0
9.75 0.175 0
10.05 0.175 0
10.35 0.175 0
10.65 0.175 0
10.95 0.175 0
11.25 0.175 0
11.55 0.175 0
11.85 0.175 0
12.15 0.175 0
12.45 0.175 0
12.75 0.175 0
13.05 0.175 0
13.35 0.175 0
13.65 0.175 0
13.95 0.175 0
14.25 0.175 0
14.55 0.175 0
14.85 0.175 0
15.15 0.175 0
15.45 0.175 0
15.75 0.175 0
16.05 0.175 0
16.35 0.175 0
16.65 0.175 0
16.95 0.175 0
17.25 0.175 0
17.55 0.175 0
17.85 0.175 0
18.15 0.175 0
18.45 0.175 0
18.75 0.175 0
19.05 0.175 0
19.35 0.175 0
19.65 0.175 0
19.95 0.175 0
20.25 0.175 0
20.55 0.175 0
20.85 0.175 0
21.15 0.175 0
21.45 0.175 0
21.75 0.175 0
22.05 0.175 0
22.35 0.175 0
22.65 0.175 0
22.95 0.175 0
23.25 0.175 0
23.55 0.175 0
23.85 0.175 0
24.15 0.175 0
24.45 0.175 0
24.75 0.175 0
25.05 0.175 0
25.35 0.175 0
25.65 0.175 0
25.95 0.175 0
26.25 0.175 0
26.55 0.175 0
26.85 0.175 0
27.15 0.175 0
27.45 0.175 0
27.75 0.175 0
28.05 0.175 0
28.35 0.175 0
28.65 0.175 0
28.95 0.175 0
29.25 0.175 0
29.55 0.175 0
29.85 0.175 0
30 0.175 0
0 0.525 0
0.15 0.525 0
0.45 0.525 0
0.75 0.525 0
1.05 0.525 0
1.35 0.525 0
1.65 0.525 0
1.95 0.525 0
2.25 0.525 0
2.55 0.525 0
2.85 0.525 0
3.15 0.525 0
3.45 0.525 0
3.75 0.525 0
4.05 0.525 0
4.35 0.525 0
4.65 0.525 0
4.95 0.525 0
5.25 0.525 0
5.55 0.525 0
5.85 0.525 0
6.15 0.525 0
6.45 0.525 0
6.75 0.525 0
7.05 0.525 0
7.35 0.525 0
7.65 0.525 0
7.95 0.525 0
8.25 0.525 0
8.55 0.525 0
8.85 0.525 0
9.15 0.525 0
9.45 0.525 0
9.75 0.525 0
10.05 0.525 0
10.35 0.525 0
10.65 0.525 0
10.95 0.525 0
11.25 0.525 0
11.55 0.525 0
11.85 0.525 0
12.15 0.525 0
12.45 0.525 0
12.75 0.525 0
13.05 0.525 0
13.35 0.525 0
13.65 0.525 0
13.95 0.525 0
14.25 0.525 0
14.55 0.525 0
14.85 0.525 0
15.15 0.525 0
15.45 0.525 0
15.75 0.525 0
16.05 0.525 0
16.35 0.525 0
16.65 0.525 0
16.95 0.525 0
17.25 0.525 0
17.55 0.525 0
17.85 0.525 0
18.15 0.525 0
18.45 0.525 0
18.75 0.525 0
19.05 0.525 0
19.35 0.525 0
19.65 0.525 0
19.95 0.525 0
20.25 0.525 0
20.55 0.525 0
20.85 0.525 0
21.15 0.525 0
21.45 0.525 0
21.75 0.525 0
22.05 0.525 0
22.35 0.525 0
22.65 0.525 0
22.95 0.525 0
23.25 0.525 0
23.55 0.525 0
23.85 0.525 0
24.15 0.525 0
24.45 0.525 0
24.75 0.525 0
25.05 0.525 0
25.35 0.525 0
25.65 0.525 0
25.95 0.525 0
26.25 0.525 0
26.55 0.525 0
26.85 0.525 0
27.15 0.525 0
27.45 0.525 0
27.75 0.525 0
28.05 0.525 0
28.35 0.525 0
28.65 0.525 0
28.95 0.525 0
29.25 0.525 0
29.55 0.525 0
29.85 0.525 0
30 0.525 0
0 0.875 0
0.15 0.875 0
0.45 0.875 0
0.75 0.875 0
1.05 0.875 0
1.35 0.875 0
1.65 0.875 0
1.95 0.875 0
2.25 0.875 0
2.55 0.875 0
2.85 0.875 0
3.15 0.875 0
3.45 0.875 0
3.75 0.875 0
4.05 0.875 0
4.35 0.875 0
4.65 0.875 0
4.95 0.875 0
5.25 0.875 0
5.55 0.875 0
5.85 0.875 0
6.15 0.875 0
6.45 0.875 0
6.75 0.875 0
7.05 0.875 0
7.35 0.875 0
7.65 0.875 0
7.95 0.875 0
8.25 0.875 0
8.55 0.875 0
8.85 0.875 0
9.15 0.875 0
9.45 0.875 0
9.75 0.875 0
10.05 0.875 0
10.35 0.875 0
10.65 0.875 0
10.95 0.875 0
11.25 0.875 0
11.55 0.875 0
11.85 0.875 0
12.15 0.875 0
12.45 0.875 0
12.75 0.875 0
13.05 0.875 0
13.35 0.875 0
13.65 0.875 0
13.95 0.875 0
14.25 0.875 0
14.55 0.875 0
14.85 0.875 0
15.15 0.875 0
15.45 0.875 0
15.75 0.875 0
16.05 0.875 0
16.35 0.875 0
16.65 0.875 0
16.95 0.875 0
17.25 0.875 0
17.55 0.875 0
17.85 0.875 0
18.15 0.875 0
18.45 0.875 0
18.75 0.875 0
19.05 0.875 0
19.35 0.875 0
19.65 0.875 0
19.95 0.875 0
20.25 0.875 0
20.55 0.875 0
20.85 0.875 0
21.15 0.875 0
21.45 0.875 0
21.75 0.875 0
22.05 0.875 0
22.35 0.875 0
22.65 0.875 0
22.95 0.875 0
23.25 0.875 0
23.55 0.875 0
23.85 0.875 0
24.15 0.875 0
24.45 0.875 0
24.75 0.875 0
25.05 0.875 0
25.35 0.875 0
25.65 0.875 0
25.95 0.875 0
26.25 0.875 0
26.55 0.875 0
26.85 0.875 0
27.15 0.875 0
27.45 0.875 0
27.75 0.875 0
28.05 0.875 0
28.35 0.875 0
28.65 0.875 0
28.95 0.875 0
29.25 0.875 0
29.55 0.875 0
29.85 0.875 0
30 0.875 0
0 1.225 0
0.15 1.225 0
0.45 1.225 0
0.75 1.225 0
1.05 1.225 0
1.35 1.225 0
1.65 1.225 0
1.95 1.225 0
2.25 1.225 0
2.55 1.225 0
2.85 1.225 0
3.15 1.225 0
3.45 1.225 0
3.75 1.225 0
4.05 1.225 0
4.35 1.225 0
4.65 1.225 0
4.95 1.225 0
5.25 1.225 0
5.55 1.225 0
5.85 1.225 0
6.15 1.225 0
6.45 1.225 0
6.75 1.225 0
7.05 1.225 0
7.35 1.225 0
7.65 1.225 0
7.95 1.225 0
8.25 1.225 0
8.55 1.225 0
8.85 1.225 0
9.15 1.225 0
9.45 1.225 0
9.75 1.225 0
10.05 1.225 0
10.35 1.225 0
10.65 1.225 0
10.95 1.225 0
11.25 1.225 0
11.55 1.225 0
11.85 1.225 0
12.15 1.225 0
12.45 1.225 0
12.75 1.225 0
13.05 1.225 0
13.35 1.225 0
13.65 1.225 0
13.95 1.225 0
14.25 1.225 0
14.55 1.225 0
14.85 1.225 0
15.15 1.225 0
15.45 1.225 0
15.75 1.225 0
16.05 1.225 0
16.35 1.225 0
16.65 1.225 0
16.95 1.225 0
17.25 1.225 0
17.55 1.225 0
17.85 1.225 0
18.15 1.225 0
18.45 1.225 0
18.75 1.225 0
19.05 1.225 0
19.35 1.225 0
19.65 1.225 0
19.95 1.225 0
20.25 1.225 0
20.55 1.225 0
20.85 1.225 0
21.15 1.225 0
21.45 1.225 0
21.75 1.225 0
22.05 1.225 0
22.35 1.225 0
22.65 1.225 0
22.95 1.225 0
23.25 1.225 0
23.55 1.225 0
23.85 1.225 0
24.15 1.225 0
24.45 1.225 0
24.75 1.225 0
25.05 1.225 0
25.35 1.225 0
25.65 1.225 0
25.95 1.225 0
26.25 1.225 0
26.55 1.225 0
26.85 1.225 0
27.15 1.225 0
27.45 1.225 0
27.75 1.225 0
28.05 1.225 0
28.35 1.225 0
28.65 1.225 0
28.95 1.225 0
29.25 1.225 0
29.55 1.225 0
29.85 1.225 0
30 1.225 0
0 1.575 0
0.15 1.575 0
0.45 1.575 0
0.75 1.575 0
1.05 1.575 0
1.35 1.575 0
1.65 1.575 0
1.95 1.575 0
2.25 1.575 0
2.55 1.575 0
2.85 1.575 0
3.15 1.575 0
3.45 1.575 0
3.75 1.575 0
4.05 1.575 0
4.35 1.575 0
4.65 1.575 0
4.95 1.575 0
5.25 1.575 0
5.55 1.575 0
5.85 1.575 0
6.15 1.575 0
6.45 1.575 0
6.75 1.575 0
7.05 1.575 0
7.35 1.575 0
7.65 1.575 0
7.95 1.575 0
8.25 1.575 0
8.55 1.575 0
8.85 1.575 0
9.15 1.575 0
9.45 1.575 0
9.75 1.575 0
10.05 1.575 0
10.35 1.575 0
10.65 1.575 0
10.95 1.575 0
11.25 1.575 0
11.55 1.575 0
11.85 1.575 0
12.15 1.575 0
12.45 1.575 0
12.75 1.575 0
13.05 1.575 0
13.35 1.575 0
13.65 1.575 0
13.95 1.575 0
14.25 1.575 0
14.55 1.575 0
14.85 1.575 0
15.15 1.575 0
15.45 1.575 0
15.75 1.575 0
16.05 1.575 0
16.35 1.575 0
16.65 1.575 0
16.95 1.575 0
17.25 1.575 0
17.55 1.575 0
17.85 1.575 0
18.15 1.575 0
18.45 1.575 0
18.75 1.575 0
19.05 1.575 0
19.35 1.575 0
19.65 1.575 0
19.95 1.575 0
20.25 1.575 0
20.55 1.575 0
20.85 1.575 0
21.15 1.575 0
21.45 1.575 0
21.75 1.575 0
22.05 1.575 0
22.35 1.575 0
22.65 1.575 0
22.95 1.575 0
23.25 1.575 0
23.55 1.575 0
23.85 1.575 0
24.15 1.575 0
24.45 1.575 0
24.75 1.575 0
25.05 1.575 0
25.35 1.575 0
25.65 1.575 0
25.95 1.575 0
26.25 1.575 0
26.55 1.575 0
26.85 1.575 0
27.15 1.575 0
27.45 1.575 0
27.75 1.575 0
28.05 1.575 0
28.35 1.575 0
28.65 1.575 0
28.95 1.575 0
29.25 1.575 0
29.55 1.575 0
29.85 1.575 0
30 1.575 0
0 1.925 0
0.15 1.925 0
0.45 1.925 0
0.75 1.925 0
1.05 1.925 0
1.35 1.925 0
1.65 1.925 0
1.95 1.925 0
2.25 1.925 0
2.55 1.925 0
2.85 1.925 0
3.15 1.925 0
3.45 1.925 0
3.75 1.925 0
4.05 1.925 0
4.35 1.925 0
4.65 1.925 0
4.95 1.925 0
5.25 1.925 0
5.55 1.925 0
5.85 1.925 0
6.15 1.925 0
6.45 1.925 0
6.75 1.925 0
7.05 1.925 0
7.35 1.925 0
7.65 1.925 0
7.95 1.925 0
8.25 1.925 0
8.55 1.925 0
8.85 1.925 0
9.15 1.925 0
9.45 1.925 0
9.75 1.925 0
10.05 1.925 0
10.35 1.925 0
10.65 1.925 0
10.95 1.925 0
11.25 1.925 0
11.55 1.925 0
11.85 1.925 0
12.15 1.925 0
12.45 1.925 0
12.75 1.925 0
13.05 1.925 0
13.35 1.925 0
13.65 1.925 0
13.95 1.925 0
14.25 1.925 0
14.55 1.925 0
14.85 1.925 0
15.15 1.925 0
15.45 1.925 0
15.75 1.925 0
16.05 1.925 0
16.35 1.925 0
16.65 1.925 0
16.95 1.925 0
17.25 1.925 0
17.55 1.925 0
17.85 1.925 0
18.15 1.925 0
18.45 1.925 0
18.75 1.925 0
19.05 1.925 0
19.35 1.925 0
19.65 1.925 0
19.95 1.925 0
20.25 1.925 0
20.55 1.925 0
20.85 1.925 0
21.15 1.925 0
21.45 1.925 0
21.75 1.925 0
22.05 1.925 0
22.35 1.925 0
22.65 1.925 0
22.95 1.925 0
23.25 1.925 0
23.55 1.925 0
23.85 1.925 0
24.15 1.925 0
24.45 1.925 0
24.75 1.925 0
25.05 1.925 0
25.35 1.925 0
25.65 1.925 0
25.95 1.925 0
26.25 1.925 0
26.55 1.925 0
26.85 1.925 0
27.15 1.925 0
27.45 1.925 0
27.75 1.925 0
28.05 1.925 0
28.35 1.925 0
28.65 1.925 0
28.95 1.925 0
29.25 1.925 0
29.55 1.925 0
29.85 1.925 0
30 1.925 0
0 2.275 0
0.15 2.275 0
0.45 2.275 0
0.75 2.275 0
1.05 2.275 0
1.35 2.275 0
1.65 2.275 0
1.95 2.275 0
2.25 2.275 0
2.55 2.275 0
2.85 2.275 0
3.15 2.275 0
3.45 2.275 0
3.75 2.275 0
4.05 2.275 0
4.35 2.275 0
4.65 2.275 0
4.95 2.275 0
5.25 2.275 0
5.55 2.275 0
5.85 2.275 0
6.15 2.275 0
6.45 2.275 0
6.75 2.275 0
7.05 2.275 0
7.35 2.275 0
7.65 2.275 0
7.95 2.275 0
8.25 2.275 0
8.55 2.275 0
8.85 2.275 0
9.15 2.275 0
9.45 2.275 0
9.75 2.275 0
10.05 2.275 0
10.35 2.275 0
10.65 2.275 0
10.95 2.275 0
11.25 2.275 0
11.55 2.275 0
11.85 2.275 0
12.15 2.275 0
12.45 2.275 0
12.75 2.275 0
13.05 2.275 0
13.35 2.275 0
13.65 2.275 0
13.95 2.275 0
14.25 2.275 0
14.55 2.275 0
14.85 2.275 0
15.15 2.275 0
15.45 2.275 0
15.75 2.275 0
16.05 2.275 0
16.35 2.275 0
16.65 2.275 0
16.95 2.275 0
17.25 2.275 0
17.55 2.275 0
17.85 2.275 0
18.15 2.275 0
18.45 2.275 0
18.75 2.275 0
19.05 2.275 0
19.35 2.275 0
19.65 2.275 0
19.95 2.275 0
20.25 2.275 0
20.55 2.275 0
20.85 2.275 0
21.15 2.275 0
21.45 2.275 0
21.75 2.275 0
22.05 2.275 0
22.35 2.275 0
22.65 2.275 0
22.95 2.275 0
23.25 2.275 0
23.55 2.275 0
23.85 2.275 0
24.15 2.275 0
24.45 2.275 0
24.75 2.275 0
25.05 2.275 0
25.35 2.275 0
25.65 2.275 0
25.95 2.275 0
26.25 2.275 0
26.55 2.275 0
26.85 2.275 0
27.15 2.275 0
27.45 2.275 0
27.75 2.275 0
28.05 2.275 0
28.35 2.275 0
28.65 2.275 0
28.95 2.275 0
29.25 2.275 0
29.55 2.275 0
29.85 2.275 0
30 2.275 0
0 2.625 0
0.15 2.625 0
0.45 2.625 0
0.75 2.625 0
1.05 2.625 0
1.35 2.625 0
1.65 2.625 0
1.95 2.625 0
2.25 2.625 0
2.55 2.625 0
2.85 2.625 0
3.15 2.625 0
3.45 2.625 0
3.75 2.625 0
4.05 2.625 0
4.35 2.625 0
4.65 2.625 0
4.95 2.625 0
5.25 2.625 0
5.55 2.625 0
5.85 2.625 0
6.15 2.625 0
6.45 2.625 0
6.75 2.625 0
7.05 2.625 0
7.35 2.625 0
7.65 2.625 0
7.95 2.625 0
8.25 2.625 0
8.55 2.625 0
8.85 2.625 0
9.15 2.625 0
9.45 2.625 0
9.75 2.625 0
10.05 2.625 0
10.35 2.625 0
10.65 2.625 0
10.95 2.625 0
11.25 2.625 0
11.55 2.625 0
11.85 2.625 0
12.15 2.625 0
12.45 2.625 0
12.75 2.625 0
13.05 2.625 0
13.35 2.625 0
13.65 2.625 0
13.95 2.625 0
14.25 2.625 0
14.55 2.625 0
14.85 2.625 0
15.15 2.625 0
15.45 2.625 0
15.75 2.625 0
16.05 2.625 0
16.35 2.625 0
16.65 2.625 0
16.95 2.625 0
17.25 2.625 0
17.55 2.625 0
17.85 2.625 0
18.15 2.625 0
18.45 2.625 0
18.75 2.625 0
19.05 2.625 0
19.35 2.625 0
19.65 2.625 0
19.95 2.625 0
20.25 2.625 0
20.55 2.625 0
20.85 2.625 0
21.15 2.625 0
21.45 2.625 0
21.75 2.625 0
22.05 2.625 0
22.35 2.625 0
22.65 2.625 0
22.95 2.625 0
23.25 2.625 0
23.55 2.625 0
23.85 2.625 0
24.15 2.625 0
24.45 2.625 0
24.75 2.625 0
25.05 2.625 0
25.35 2.625 0
25.65 2.625 0
25.95 2.625 0
26.25 2.625 0
26.55 2.625 0
26.85 2.625 0
27.15 2.625 0
27.45 2.625 0
27.75 2.625 0
28.05 2.625 0
28.35 2.625 0
28.65 2.625 0
28.95 2.625 0
29.25 2.625 0
29.55 2.625 0
29.85 2.625 0
30 2.625 0
0 2.975 0
0.15 2.975 0
0.45 2.975 0
0.75 2.975 0
1.05 2.975 0
1.35 2.975 0
1.65 2.975 0
1.95 2.975 0
2.25 2.975 0
2.55 2.975 0
2.85 2.975 0
3.15 2.975 0
3.45 2.975 0
3.75 2.975 0
4.05 2.975 0
4.35 2.975 0
4.65 2.975 0
4.95 2.975 0
5.25 2.975 0
5.55 2.975 0
5.85 2.975 0
6.15 2.975 0
6.45 2.975 0
6.75 2.975 0
7.05 2.975 0
7.35 2.975 0
7.65 2.975 0
7.95 2.975 0
8.25 2.975 0
8.55 2.975 0
8.85 2.975 0
9.15 2.975 0
9.45 2.975 0
9.75 2.975 0
10.05 2.975 0
10.35 2.975 0
10.65 2.975 0
10.95 2.975 0
11.25 2.975 0
11.55 2.975 0
11.85 2.975 0
12.15 2.975 0
12.45 2.975 0
12.75 2.975 0
13.05 2.975 0
13.35 2.975 0
13.65 2.975 0
13.95 2.975 0
14.25 2.975 0
14.55 2.975 0
14.85 2.975 0
15.15 2.975 0
15.45 2.975 0
15.75 2.975 0
16.05 2.975 0
16.35 2.975 0
16.65 2.975 0
16.95 2.975 0
17.25 2.975 0
17.55 2.975 0
17.85 2.975 0
18.15 2.975 0
18.45 2.975 0
18.75 2.975 0
19.05 2.975 0
19.35 2.975 0
19.65 2.975 0
19.95 2.975 0
20.25 2.975 0
20.55 2.975 0
20.85 2.975 0
21.15 2.975 0
21.45 2.975 0
21.75 2.975 0
22.05 2.975 0
22.35 2.975 0
22.65 2.975 0
22.95 2.975 0
23.25 2.975 0
23.55 2.975 0
23.85 2.975 0
24.15 2.975 0
24.45 2.975 0
24.75 2.975 0
25.05 2.975 0
25.35 2.975 0
25.65 2.975 0
25.95 2.975 0
26.25 2.975 0
26.55 2.975 0
26.85 2.975 0
27.15 2.975 0
27.45 2.975 0
27.75 2.975 0
28.05 2.975 0
28.35 2.975 0
28.65 2.975 0
28.95 2.975 0
29.25 2.975 0
29.55 2.975 0
29.85 2.975 0
30 2.975 0
0 3.325 0
0.15 3.325 0
0.45 3.325 0
0.75 3.325 0
1.05 3.325 0
1.35 3.325 0
1.65 3.325 0
1.95 3.325 0
2.25 3.325 0
2.55 3.325 0
2.85 3.325 0
3.15 3.325 0
3.45 3.325 0
3.75 3.325 0
4.05 3.325 0
4.35 3.325 0
4.65 3.325 0
4.95 3.325 0
5.25 3.325 0
5.55 3.325 0
5.85 3.325 0
6.15 3.325 0
6.45 3.325 0
6.75 3.325 0
7.05 3.325 0
7.35 3.325 0
7.65 3.325 0
7.95 3.325 0
8.25 3.325 0
8.55 3.325 0
8.85 3.325 0
9.15 3.325 0
9.45 3.325 0
9.75 3.325 0
10.05 3.325 0
10.35 3.325 0
10.65 3.325 0
10.95 3.325 0
11.25 3.325 0
11.55 3.325 0
11.85 3.325 0
12.15 3.325 0
12.45 3.325 0
12.75 3.325 0
13.05 3.325 0
13.35 3.325 0
13.65 3.325 0
13.95 3.325 0
14.25 3.325 0
14.55 3.325 0
14.85 3.325 0
15.15 3.325 0
15.45 3.325 0
15.75 3.325 0
16.05 3.325 0
16.35 3.325 0
16.65 3.325 0
16.95 3.325 0
17.25 3.325 0
17.55 3.325 0
17.85 3.325 0
18.15 3.325 0
18.45 3.325 0
18.75 3.325 0
19.05 3.325 0
19.35 3.325 0
19.65 3.325 0
19.95 3.325 0
20.25 3.325 0
20.55 3.325 0
20.85 3.325 0
21.15 3.325 0
21.45 3.325 0
21.75 3.325 0
22.05 3.325 0
22.35 3.325 0
22.65 3.325 0
22.95 3.325 0
23.25 3.325 0
23.55 3.325 0
23.85 3.325 0
24.15 3.325 0
24.45 3.325 0
24.75 3.325 0
25.05 3.325 0
25.35 3.325 0
25.65 3.325 0
25.95 3.325 0
26.25 3.325 0
26.55 3.325 0
26.85 3.325 0
27.15 3.325 0
27.45 3.325 0
27.75 3.325 0
28.05 3.325 0
28.35 3.325 0
28.65 3.325 0
28.95 3.325 0
29.25 3.325 0
29.55 3.325 0
29.85 3.325 0
30 3.325 0
0 3.675 0
0.15 3.675 0
0.45 3.675 0
0.75 3.675 0
1.05 3.675 0
1.35 3.675 0
1.65 3.675 0
1.95 3.675 0
2.25 3.675 0
2.55 3.675 0
2.85 3.675 0
3.15 3.675 0
3.45 3.675 0
3.75 3.675 0
4.05 3.675 0
4.35 3.675 0
4.65 3.675 0
4.95 3.675 0
5.25 3.675 0
5.55 3.675 0
5.85 3.675 0
6.15 3.675 0
6.45 3.675 0
6.75 3.675 0
7.05 3.675 0
7.35 3.675 0
7.65 3.675 0
7.95 3.675 0
8.25 3.675 0
8.55 3.675 0
8.85 3.675 0
9.15 3.675 0
9.45 3.675 0
9.75 3.675 0
10.05 3.675 0
10.35 3.675 0
10.65 3.675 0
10.95 3.675 0
11.25 3.675 0
11.55 3.675 0
11.85 3.675 0
12.15 3.675 0
12.45 3.675 0
12.75 3.675 0
13.05 3.675 0
13.35 3.675 0
13.65 3.675 0
13.95 3.675 0
14.25 3.675 0
14.55 3.675 0
14.85 3.675 0
15.15 3.675 0
15.45 3.675 0
15.75 3.675 0
16.05 3.675 0
16.35 3.675 0
16.65 3.675 0
16.95 3.675 0
17.25 3.675 0
17.55 3.675 0
17.85 3.675 0
18.15 3.675 0
18.45 3.675 0
18.75 3.675 0
19.05 3.675 0
19.35 3.675 0
19.65 3.675 0
19.95 3.675 0
20.25 3.675 0
20.55 3.675 0
20.85 3.675 0
21.15 3.675 0
21.45 3.675 0
21.75 3.675 0
22.05 3.675 0
22.35 3.675 0
22.65 3.675 0
22.95 3.675 0
23.25 3.675 0
23.55 3.675 0
23.85 3.675 0
24.15 3.675 0
24.45 3.675 0
24.75 3.675 0
25.05 3.675 0
25.35 3.675 0
25.65 3.675 0
25.95 3.675 0
26.25 3.675 0
26.55 3.675 0
26.85 3.675 0
27.15 3.675 0
27.45 3.675 0
27.75 3.675 0
28.05 3.675 0
28.35 3.675 0
28.65 3.675 0
28.95 3.675 0
29.25 3.675 0
29.55 3.675 0
29.85 3.675 0
30 3.675 0
0 4.025 0
0.15 4.025 0
0.45 4.025 0
0.75 4.025 0
1.05 4.025 0
1.35 4.025 0
1.65 4.025 0
1.95 4.025 0
2.25 4.025 0
2.55 4.025 0
2.85 4.025 0
3.15 4.025 0
3.45 4.025 0
3.75 4.025 0
4.05 4.025 0
4.35 4.025 0
4.65 4.025 0
4.95 4.025 0
5.25 4.025 0
5.55 4.025 0
5.85 4.025 0
6.15 4.025 0
6.45 4.025 0
6.75 4.025 0
7.05 4.025 0
7.35 4.025 0
7.65 4.025 0
7.95 4.025 0
8.25 4.025 0
8.55 4.025 0
8.85 4.025 0
9.15 4.025 0
9.45 4.025 0
9.75 4.025 0
10.05 4.025 0
10.35 4.025 0
10.65 4.025 0
10.95 4.025 0
11.25 4.025 0
11.55 4.025 0
11.85 4.025 0
12.15 4.025 0
12.45 4.025 0
12.75 4.025 0
13.05 4.025 0
13.35 4.025 0
13.65 4.025 0
13.95 4.025 0
14.25 4.025 0
14.55 4.025 0
14.85 4.025 0
15.15 4.025 0
15.45 4.025 0
15.75 4.025 0
16.05 4.025 0
16.35 4.025 0
16.65 4.025 0
16.95 4.025 0
17.25 4.025 0
17.55 4.025 0
17.85 4.025 0
18.15 4.025 0
18.45 4.025 0
18.75 4.025 0
19.05 4.025 0
19.35 4.025 0
19.65 4.025 0
19.95 4.025 0
20.25 4.025 0
20.55 4.025 0
20.85 4.025 0
21.15 4.025 0
21.45 4.025 0
21.75 4.025 0
22.05 4.025 0
22.35 4.025 0
22.65 4.025 0
22.95 4.025 0
23.25 4.025 0
23.55 4.025 0
23.85 4.025 0
24.15 4.025 0
24.45 4.025 0
24.75 4.025 0
25.05 4.025 0
25.35 4.025 0
25.65 4.025 0
25.95 4.025 0
26.25 4.025 0
26.55 4.025 0
26.85 4.025 0
27.15 4.025 0
27.45 4.025 0
27.75 4.025 0
28.05 4.025 0
28.35 4.025 0
28.65 4.025 0
28.95 4.025 0
29.25 4.025 0
29.55 4.025 0
29.85 4.025 0
30 4.025 0
0 4.375 0
0.15 4.375 0
0.45 4.375 0
0.75 4.375 0
1.05 4.375 0
1.35 4.375 0
1.65 4.375 0
1.95 4.375 0
2.25 4.375 0
2.55 4.375 0
2.85 4.375 0
3.15 4.375 0
3.45 4.375 0
3.75 4.375 0
4.05 4.375 0
4.35 4.375 0
4.65 4.375 0
4.95 4.375 0
5.25 4.375 0
5.55 4.375 0
5.85 4.375 0
6.15 4.375 0
6.45 4.375 0
6.75 4.375 0
7.05 4.375 0
7.35 4.375 0
7.65 4.375 0
7.95 4.375 0
8.25 4.375 0
8.55 4.375 0
8.85 4.375 0
9.15 4.375 0
9.45 4.375 0
9.75 4.375 0
10.05 4.375 0
10.35 4.375 0
10.65 4.375 0
10.95 4.375 0
11.25 4.375 0
11.55 4.375 0
11.85 4.375 0
12.15 4.375 0
12.45 4.375 0
12.75 4.375 0
13.05 4.375 0
13.35 4.375 0
13.65 4.375 0
13.95 4.375 0
14.25 4.375 0
14.55 4.375 0
14.85 4.375 0
15.15 4.375 0
15.45 4.375 0
15.75 4.375 0
16.05 4.375 0
16.35 4.375 0
16.65 4.375 0
16.95 4.375 0
17.25 4.375 0
17.55 4.375 0
17.85 4.375 0
18.15 4.375 0
18.45 4.375 0
18.75 4.375 0
19.05 4.375 0
19.35 4.375 0
19.65 4.375 0
19.95 4.375 0
20.25 4.375 0
20.55 4.375 0
20.85 4.375 0
21.15 4.375 0
21.45 4.375 0
21.75 4.375 0
22.05 4.375 0
22.35 4.375 0
22.65 4.375 0
22.95 4.375 0
23.25 4.375 0
23.55 4.375 0
23.85 4.375 0
24.15 4.375 0
24.45 4.375 0
24.75 4.375 0
25.05 4.375 0
25.35 4.375 0
25.65 4.375 0
25.95 4.375 0
26.25 4.375 0
26.55 4.375 0
26.85 4.375 0
27.15 4.375 0
27.45 4.375 0
27.75 4.375 0
28.05 4.375 0
28.35 4.375 0
28.65 4.375 0
28.95 4.375 0
29.25 4.375 0
29.55 4.375 0
29.85 4.375 0
30 4.375 0
0 4.725 0
0.15 4.725 0
0.45 4.725 0
0.75 4.725 0
1.05 4.725 0
1.35 4.725 0
1.65 4.725 0
1.95 4.725 0
2.25 4.725 0
2.55 4.725 0
2.85 4.725 0
3.15 4.725 0
3.45 4.725 0
3.75 4.725 0
4.05 4.725 0
4.35 4.725 0
4.65 4.725 0
4.95 4.725 0
5.25 4.725 0
5.55 4.725 0
5.85 4.725 0
6.15 4.725 0
6.45 4.725 0
6.75 4.725 0
7.05 4.725 0
7.35 4.725 0
7.65 4.725 0
7.95 4.725 0
8.25 4.725 0
8.55 4.725 0
8.85 4.725 0
9.15 4.725 0
9.45 4.725 0
9.75 4.725 0
10.05 4.725 0
10.35 4.725 0
10.65 4.725 0
10.95 4.725 0
11.25 4.725 0
11.55 4.725 0
11.85 4.725 0
12.15 4.725 0
12.45 4.725 0
12.75 4.725 0
13.05 4.725 0
13.35 4.725 0
13.65 4.725 0
13.95 4.725 0
14.25 4.725 0
14.55 4.725 0
14.85 4.725 0
15.15 4.725 0
15.45 4.725 0
15.75 4.725 0
16.05 4.725 0
16.35 4.725 0
16.65 4.725 0
16.95 4.725 0
17.25 4.725 0
17.55 4.725 0
17.85 4.725 0
18.15 4.725 0
18.45 4.725 0
18.75 4.725 0
19.05 4.725 0
19.35 4.725 0
19.65 4.725 0
19.95 4.725 0
20.25 4.725 0
20.55 4.725 0
20.85 4.725 0
21.15 4.725 0
21.45 4.725 0
21.75 4.725 0
22.05 4.725 0
22.35 4.725 0
22.65 4.725 0
22.95 4.725 0
23.25 4.725 0
23.55 4.725 0
23.85 4.725 0
24.15 4.725 0
24.45 4.725 0
24.75 4.725 0
25.05 4.725 0
25.35 4.725 0
25.65 4.725 0
25.95 4.725 0
26.25 4.725 0
26.55 4.725 0
26.85 4.725 0
27.15 4.725 0
27.45 4.725 0
27.75 4.725 0
28.05 4.725 0
28.35 4.725 0
28.65 4.725 0
28.95 4.725 0
29.25 4.725 0
29.55 4.725 0
29.85 4.725 0
30 4.725 0
0 5.075 0
0.15 5.075 0
0.45 5.075 0
0.75 5.075 0
1.05 5.075 0
1.35 5.075 0
1.65 5.075 0
1.95 5.075 0
2.25 5.075 0
2.55 5.075 0
2.85 5.075 0
3.15 5.075 0
3.45 5.075 0
3.75 5.075 0
4.05 5.075 0
4.35 5.075 0
4.65 5.075 0
4.95 5.075 0
5.25 5.075 0
5.55 5.075 0
5.85 5.075 0
6.15 5.075 0
6.45 5.075 0
6.75 5.075 0
7.05 5.075 0
7.35 5.075 0
7.65 5.075 0
7.95 5.075 0
8.25 5.075 0
8.55 5.075 0
8.85 5.075 0
9.15 5.075 0
9.45 5.075 0
9.75 5.075 0
10.05 5.075 0
10.35 5.075 0
10.65 5.075 0
10.95 5.075 0
11.25 5.075 0
11.55 5.075 0
11.85 5.075 0
12.15 5.075 0
12.45 5.075 0
12.75 5.075 0
13.05 5.075 0
13.35 5.075 0
13.65 5.075 0
13.95 5.075 0
14.25 5.075 0
14.55 5.075 0
14.85 5.075 0
15.15 5.075 0
15.45 5.075 0
15.75 5.075 0
16.05 5.075 0
16.35 5.075 0
16.65 5.075 0
16.95 5.075 0
17.25 5.075 0
17.55 5.075 0
17.85 5.075 0
18.15 5.075 0
18.45 5.075 0
18.75 5.075 0
19.05 5.075 0
19.35 5.075 0
19.65 5.075 0
19.95 5.075 0
20.25 5.075 0
20.55 5.075 0
20.85 5.075 0
21.15 5.075 0
21.45 5.075 0
21.75 5.075 0
22.05 5.075 0
22.35 5.075 0
22.65 5.075 0
22.95 5.075 0
23.25 5.075 0
23.55 5.075 0
23.85 5.075 0
24.15 5.075 0
24.45 5.075 0
24.75 5.075 0
25.05 5.075 0
25.35 5.075 0
25.65 5.075 0
25.95 5.075 0
26.25 5.075 0
26.55 5.075 0
26.85 5.075 0
27.15 5.075 0
27.45 5.075 0
27.75 5.075 0
28.05 5.075 0
28.35 5.075 0
28.65 5.075 0
28.95 5.075 0
29.25 5.075 0
29.55 5.075 0
29.85 5.075 0
30 5.075 0
0 5.425 0
0.15 5.425 0
0.45 5.425 0
0.75 5.425 0
1.05 5.425 0
1.35 5.425 0
1.65 5.425 0
1.95 5.425 0
2.25 5.425 0
2.55 5.425 0
2.85 5.425 0
3.15 5.425 0
3.45 5.425 0
3.75 5.425 0
4.05 5.425 0
4.35 5.425 0
4.65 5.425 0
4.95 5.425 0
5.25 5.425 0
5.55 5.425 0
5.85 5.425 0
6.15 5.425 0
6.45 5.425 0
6.75 5.425 0
7.05 5.425 0
7.35 5.425 0
7.65 5.425 0
7.95 5.425 0
8.25 5.425 0
8.55 5.425 0
8.85 5.425 0
9.15 5.425 0
9.45 5.425 0
9.75 5.425 0
10.05 5.425 0
10.35 5.425 0
10.65 5.425 0
10.95 5.425 0
11.25 5.425 0
11.55 5.425 0
11.85 5.425 0
12.15 5.425 0
12.45 5.425 0
12.75 5.425 0
13.05 5.425 0
13.35 5.425 0
13.65 5.425 0
13.95 5.425 0
14.25 5.425 0
14.55 5.425 0
14.85 5.425 0
15.15 5.425 0
15.45 5.425 0
15.75 5.425 0
16.05 5.425 0
16.35 5.425 0
16.65 5.425 0
16.95 5.425 0
17.25 5.425 0
17.55 5.425 0
17.85 5.425 0
18.15 5.425 0
18.45 5.425 0
18.75 5.425 0
19.05 5.425 0
19.35 5.425 0
19.65 5.425 0
19.95 5.425 0
20.25 5.425 0
20.55 5.425 0
20.85 5.425 0
21.15 5.425 0
21.45 5.425 0
21.75 5.425 0
22.05 5.425 0
22.35 5.425 0
22.65 5.425 0
22.95 5.425 0
23.25 5.425 0
23.55 5.425 0
23.85 5.425 0
24.15 5.425 0
24.45 5.425 0
24.75 5.425 0
25.05 5.425 0
25.35 5.425 0
25.65 5.425 0
25.95 5.425 0
26.25 5.425 0
26.55 5.425 0
26.85 5.425 0
27.15 5.425 0
27.45 5.425 0
27.75 5.425 0
28.05 5.425 0
28.35 5.425 0
28.65 5.425 0
28.95 5.425 0
29.25 5.425 0
29.55 5.425 0
29.85 5.425 0
30 5.425 0
0 5.775 0
0.15 5.775 0
0.45 5.775 0
0.75 5.775 0
1.05 5.775 0
1.35 5.775 0
1.65 5.775 0
1.95 5.775 0
2.25 5.775 0
2.55 5.775 0
2.85 5.775 0
3.15 5.775 0
3.45 5.775 0
3.75 5.775 0
4.05 5.775 0
4.35 5.775 0
4.65 5.775 0
4.95 5.775 0
5.25 5.775 0
5.55 5.775 0
5.85 5.775 0
6.15 5.775 0
6.45 5.775 0
6.75 5.775 0
7.05 5.775 0
7.35 5.775 0
7.65 5.775 0
7.95 5.775 0
8.25 5.775 0
8.55 5.775 0
8.85 5.775 0
9.15 5.775 0
9.45 5.775 0
9.75 5.775 0
10.05 5.775 0
10.35 5.775 0
10.65 5.775 0
10.95 5.775 0
11.25 5.775 0
11.55 5.775 0
11.85 5.775 0
12.15 5.775 0
12.45 5.775 0
12.75 5.775 0
13.05 5.775 0
13.35 5.775 0
13.65 5.775 0
13.95 5.775 0
14.25 5.775 0
14.55 5.775 0
14.85 5.775 0
15.15 5.775 0
15.45 5.775 0
15.75 5.775 0
16.05 5.775 0
16.35 5.775 0
16.65 5.775 0
16.95 5.775 0
17.25 5.775 0
17.55 5.775 0
17.85 5.775 0
18.15 5.775 0
18.45 5.775 0
18.75 5.775 0
19.05 5.775 0
19.35 5.775 0
19.65 5.775 0
19.95 5.775 0
20.25 5.775 0
20.55 5.775 0
20.85 5.775 0
21.15 5.775 0
21.45 5.775 0
21.75 5.775 0
22.05 5.775 0
22.35 5.775 0
22.65 5.775 0
22.95 5.775 0
23.25 5.775 0
23.55 5.775 0
23.85 5.775 0
24.15 5.775 0
24.45 5.775 0
24.75 5.775 0
25.05 5.775 0
25.35 5.775 0
25.65 5.775 0
25.95 5.775 0
26.25 5.775 0
26.55 5.775 0
26.85 5.775 0
27.15 5.775 0
27.45 5.775 0
27.75 5.775 0
28.05 5.775 0
28.35 5.775 0
28.65 5.775 0
28.95 5.775 0
29.25 5.775 0
29.55 5.775 0
29.85 5.775 0
30 5.775 0
0 6.125 0
0.15 6.125 0
0.45 6.125 0
0.75 6.125 0
1.05 6.125 0
1.35 6.125 0
1.65 6.125 0
1.95 6.125 0
2.25 6.125 0
2.55 6.125 0
2.85 6.125 0
3.15 6.125 0
3.45 6.125 0
3.75 6.125 0
4.05 6.125 0
4.35 6.125 0
4.65 6.125 0
4.95 6.125 0
5.25 6.125 0
5.55 6.125 0
5.85 6.125 0
6.15 6.125 0
6.45 6.125 0
6.75 6.125 0
7.05 6.125 0
7.35 6.125 0
7.65 6.125 0
7.95 6.125 0
8.25 6.125 0
8.55 6.125 0
8.85 6.125 0
9.15 6.125 0
9.45 6.125 0
9.75 6.125 0
10.05 6.125 0
10.35 6.125 0
10.65 6.125 0
10.95 6.125 0
11.25 6.125 0
11.55 6.125 0
11.85 6.125 0
12.15 6.125 0
12.45 6.125 0
12.75 6.125 0
13.05 6.125 0
13.35 6.125 0
13.65 6.125 0
13.95 6.125 0
14.25 6.125 0
14.55 6.125 0
14.85 6.125 0
15.15 6.125 0
15.45 6.125 0
15.75 6.125 0
16.05 6.125 0
16.35 6.125 0
16.65 6.125 0
16.95 6.125 0
17.25 6.125 0
17.55 6.125 0
17.85 6.125 0
18.15 6.125 0
18.45 6.125 0
18.75 6.125 0
19.05 6.125 0
19.35 6.125 0
19.65 6.125 0
19.95 6.125 0
20.25 6.125 0
20.55 6.125 0
20.85 6.125 0
21.15 6.125 0
21.45 6.125 0
21.75 6.125 0
22.05 6.125 0
22.35 6.125 0
22.65 6.125 0
22.95 6.125 0
23.25 6.125 0
23.55 6.125 0
23.85 6.125 0
24.15 6.125 0
24.45 6.125 0
24.75 6.125 0
25.05 6.125 0
25.35 6.125 0
25.65 6.125 0
25.95 6.125 0
26.25 6.125 0
26.55 6.125 0
26.85 6.125 0
27.15 6.125 0
27.45 6.125 0
27.75 6.125 0
28.05 6.125 0
28.35 6.125 0
28.65 6.125 0
28.95 6.125 0
29.25 6.125 0
29.55 6.125 0
29.85 6.125 0
30 6.125 0
0 6.475 0
0.15 6.475 0
0.45 6.475 0
0.75 6.475 0
1.05 6.475 0
1.35 6.475 0
1.65 6.475 0
1.95 6.475 0
2.25 6.475 0
2.55 6.475 0
2.85 6.475 0
3.15 6.475 0
3.45 6.475 0
3.75 6.475 0
4.05 6.475 0
4.35 6.475 0
4.65 6.475 0
4.95 6.475 0
5.25 6.475 0
5.55 6.475 0
5.85 6.475 0
6.15 6.475 0
6.45 6.475 0
6.75 6.475 0
7.05 6.475 0
7.35 6.475 0
7.65 6.475 0
7.95 6.475 0
8.25 6.475 0
8.55 6.475 0
8.85 6.475 0
9.15 6.475 0
9.45 6.475 0
9.75 6.475 0
10.05 6.475 0
10.35 6.475 0
10.65 6.475 0
10.95 6.475 0
11.25 6.475 0
11.55 6.475 0
11.85 6.475 0
12.15 6.475 0
12.45 6.475 0
12.75 6.475 0
13.05 6.475 0
13.35 6.475 0
13.65 6.475 0
13.95 6.475 0
14.25 6.475 0
14.55 6.475 0
14.85 6.475 0
15.15 6.475 0
15.45 6.475 0
15.75 6.475 0
16.05 6.475 0
16.35 6.475 0
16.65 6.475 0
16.95 6.475 0
17.25 6.475 0
17.55 6.475 0
17.85 6.475 0
18.15 6.475 0
18.45 6.475 0
18.75 6.475 0
19.05 6.475 0
19.35 6.475 0
19.65 6.475 0
19.95 6.475 0
20.25 6.475 0
20.55 6.475 0
20.85 6.475 0
21.15 6.475 0
21.45 6.475 0
21.75 6.475 0
22.05 6.475 0
22.35 6.475 0
22.65 6.475 0
22.95 6.475 0
23.25 6.475 0
23.55 6.475 0
23.85 6.475 0
24.15 6.475 0
24.45 6.475 0
24.75 6.475 0
25.05 6.475 0
25.35 6.475 0
25.65 6.475 0
25.95 6.475 0
26.25 6.475 0
26.55 6.475 0
26.85 6.475 0
27.15 6.475 0
27.45 6.475 0
27.75 6.475 0
28.05 6.475 0
28.35 6.475 0
28.65 6.475 0
28.95 6.475 0
29.25 6.475 0
29.55 6.475 0
29.85 6.475 0
30 6.475 0
0 6.825 0
0.15 6.825 0
0.45 6.825 0
0.75 6.825 0
1.05 6.825 0
1.35 6.825 0
1.65 6.825 0
1.95 6.825 0
2.25 6.825 0
2.55 6.825 0
2.85 6.825 0
3.15 6.825 0
3.45 6.825 0
3.75 6.825 0
4.05 6.825 0
4.35 6.825 0
4.65 6.825 0
4.95 6.825 0
5.25 6.825 0
5.55 6.825 0
5.85 6.825 0
6.15 6.825 0
6.45 6.825 0
6.75 6.825 0
7.05 6.825 0
7.35 6.825 0
7.65 6.825 0
7.95 6.825 0
8.25 6.825 0
8.55 6.825 0
8.85 6.825 0
9.15 6.825 0
9.45 6.825 0
9.75 6.825 0
10.05 6.825 0
10.35 6.825 0
10.65 6.825 0
10.95 6.825 0
11.25 6.825 0
11.55 6.825 0
11.85 6.825 0
12.15 6.825 0
12.45 6.825 0
12.75 6.825 0
13.05 6.825 0
13.35 6.825 0
13.65 6.825 0
13.95 6.825 0
14.25 6.825 0
14.55 6.825 0
14.85 6.825 0
15.15 6.825 0
15.45 6.825 0
15.75 6.825 0
16.05 6.825 0
16.35 6.825 0
16.65 6.825 0
16.95 6.825 0
17.25 6.825 0
17.55 6.825 0
17.85 6.825 0
18.15 6.825 0
18.45 6.825 0
18.75 6.825 0
19.05 6.825 0
19.35 6.825 0
19.65 6.825 0
19.95 6.825 0
20.25 6.825 0
20.55 6.825 0
20.85 6.825 0
21.15 6.825 0
21.45 6.825 0
21.75 6.825 0
22.05 6.825 0
22.35 6.825 0
22.65 6.825 0
22.95 6.825 0
23.25 6.825 0
23.55 6.825 0
23.85 6.825 0
24.15 6.825 0
24.45 6.825 0
24.75 6.825 0
25.05 6.825 0
25.35 6.825 0
25.65 6.825 0
25.95 6.825 0
26.25 6.825 0
26.55 6.825 0
26.85 6.825 0
27.15 6.825 0
27.45 6.825 0
27.75 6.825 0
28.05 6.825 0
28.35 6.825 0
28.65 6.825 0
28.95 6.825 0
29.25 6.825 0
29.55 6.825 0
29.85 6.825 0
30 6.825 0
0 7 0
0.15 7 0
0.45 7 0
0.75 7 0
1.05 7 0
1.35 7 0
1.65 7 0
1.95 7 0
2.25 7 0
2.55 7 0
2.85 7 0
3.15 7 0
3.45 7 0
3.75 7 0
4.05 7 0
4.35 7 0
4.65 7 0
4.95 7 0
5.25 7 0
5.55 7 0
5.85 7 0
6.15 7 0
6.45 7 0
6.75 7 0
7.05 7 0
7.35 7 0
7.65 7 0
7.95 7 0
8.25 7 0
8.55 7 0
8.85 7 0
9.15 7 0
9.45 7 0
9.75 7 0
10.05 7 0
10.35 7 0
10.65 7 0
10.95 7 0
11.25 7 0
11.55 7 0
11.85 7 0
12.15 7 0
12.45 7 0
12.75 7 0
13.05 7 0
13.35 7 0
13.65 7 0
13.95 7 0
14.25 7 0
14.55 7 0
14.85 7 0
15.15 7 0
15.45 7 0
15.75 7 0
16.05 7 0
16.35 7 0
16.65 7 0
16.95 7 0
17.25 7 0
17.55 7 0
17.85 7 0
18.15 7 0
18.45 7 0
18.75 7 0
19.05 7 0
19.35 7 0
19.65 7 0
19.95 7 0
20.25 7 0
20.55 7 0
20.85 7 0
21.15 7 0
21.45 7 0
21.75 7 0
22.05 7 0
22.35 7 0
22.65 7 0
22.95 7 0
23.25 7 0
23.55 7 0
23.85 7 0
24.15 7 0
24.45 7 0
24.75 7 0
25.05 7 0
25.35 7 0
25.65 7 0
25.95 7 0
26.25 7 0
26.55 7 0
26.85 7 0
27.15 7 0
27.45 7 0
27.75 7 0
28.05 7 0
28.35 7 0
28.65 7 0
28.95 7 0
29.25 7 0
29.55 7 0
29.85 7 0
30 7 0
GEOMETRY ZN = 1, X=4, Y=2.1, T=LINE, LT = 0.3, CS=GRID
1
51
0 0
-0.00394265 0.0626666
-0.0157084 0.124345
-0.0351118 0.184062
-0.0618467 0.240877
-0.0954915 0.293893
-0.135516 0.342274