title = "sample mesh"
Variables="x","y","v"
zone T="0",  i=102, j=21, f=point
0 0 0
0.15 0 0
0.45 0 0
0.75 0 0
1.05 0 0
1.35 0 0
1.65 0 0
1.95 0 0
2.25 0 0
2.55 0 0
2.85 0 0
3.15 0 0
3.45 0 0
3.75 0 0
4.05 0 0
4.35 0 0
4.65 0 0
4.95 0 0
5.25 0 0
5.55 0 0
5.85 0 0
6.15 0 0
6.45 0 0
6.75 0 0
7.05 0 0
7.35 0 0
7.65 0 0
7.95 0 0
8.25 0 0
8.55 0 0
8.85 0 0
9.15 0 0
9.45 0 0
9.75 0 0
10.05 0 0
10.35 0 0
10.65 0 0
10.95 0 0
11.25 0 0
11.55 0 0
11.85 0 0
12.15 0 0
12.45 0 0
12.75 0 0
13.05 0 0
13.35 0 0
13.65 0 0
13.95 0 0
14.25 0 0
14.55 0 0
14.85 0 0
15.15 0 0
15.45 0 0
15.75 0 0
16.05 0 0
16.35 0 0
16.65 0 0
16.95 0 0
17.25 0 0
17.55 0 0
17.85 0 0
18.15 0 0
18.45 0 0
18.75 0 0
19.05 0 0
19.35 0 0
19.65 0 0
19.95 0 0
20.25 0 0
20.55 0 0
20.85 0 0
21.15 0 0
21.45 0 0
21.75 0 0
22.05 0 0
22.35 0 0
22.65 0 0
22.95 0 0
23.25 0 0
23.55 0 0
23.85 0 0
24.15 0 0
24.45 0 0
24.75 0 0
25.05 0 0
25.35 0 0
25.65 0 0
25.95 0 0
26.25 0 0
26.55 0 0
26.85 0 0
27.15 0 0
27.45 0 0
27.75 0 0
28.05 0 0
28.35 0 0
28.65 0 0
28.95 0 0
29.25 0 0
29.55 0 0
29.85 0 0
30 0 0
0 0.35 0
0.15 0.35 0
0.45 0.35 0
0.75 0.35 0
1.05 0.35 0
1.35 0.35 0
1.65 0.35 0
1.95 0.35 0
2.25 0.35 0
2.55 0.35 0
2.85 0.35 0
3.15 0.35 0
3.45 0.35 0
3.75 0.35 0
4.05 0.35 0
4.35 0.35 0
4.65 0.35 0
4.95 0.35 0
5.25 0.35 0
5.55 0.35 0
5.85 0.35 0
6.15 0.35 0
6.45 0.35 0
6.75 0.35 0
7.05 0.35 0
7.35 0.35 0
7.65 0.35 0
7.95 0.35 0
8.25 0.35 0
8.55 0.35 0
8.85 0.35 0
9.15 0.35 0
9.45 0.35 0
9.75 0.35 0
10.05 0.35 0
10.35 0.35 0
10.65 0.35 0
10.95 0.35 0
11.25 0.35 0
11.55 0.35 0
11.85 0.35 0
12.15 0.35 0
12.45 0.35 0
12.75 0.35 0
13.05 0.35 0
13.35 0.35 0
13.65 0.35 0
13.95 0.35 0
14.25 0.35 0
14.55 0.35 0
14.85 0.35 0
15.15 0.35 0
15.45 0.35 0
15.75 0.35 0
16.05 0.35 0
16.35 0.35 0
16.65 0.35 0
16.95 0.35 0
17.25 0.35 0
17.55 0.35 0
17.85 0.35 0
18.15 0.35 0
18.45 0.35 0
18.75 0.35 0
19.05 0.35 0
19.35 0.35 0
19.65 0.35 0
19.95 0.35 0
20.25 0.35 0
20.55 0.35 0
20.85 0.35 0
21.15 0.35 0
21.45 0.35 0
21.75 0.35 0
22.05 0.35 0
22.35 0.35 0
22.65 0.35 0
22.95 0.35 0
23.25 0.35 0
23.55 0.35 0
23.85 0.35 0
24.15 0.35 0
24.45 0.35 0
24.75 0.35 0
25.05 0.35 0
25.35 0.35 0
25.65 0.35 0
25.95 0.35 0
26.25 0.35 0
26.55 0.35 0
26.85 0.35 0
27.15 0.35 0
27.45 0.35 0
27.75 0.35 0
28.05 0.35 0
28.35 0.35 0
28.65 0.35 0
28.95 0.35 0
29.25 0.35 0
29.55 0.35 0
29.85 0.35 0
30 0.35 0
0 0.7 0
0.15 0.7 0
0.45 0.7 0
0.75 0.7 0
1.05 0.7 0
1.35 0.7 0
1.65 0.7 0
1.95 0.7 0
2.25 0.7 0
2.55 0.7 0
2.85 0.7 0
3.15 0.7 0
3.45 0.7 0
3.75 0.7 0
4.05 0.7 0
4.35 0.7 0
4.65 0.7 0
4.95 0.7 0
5.25 0.7 0
5.55 0.7 0
5.85 0.7 0
6.15 0.7 0
6.45 0.7 0
6.75 0.7 0
7.05 0.7 0
7.35 0.7 0
7.65 0.7 0
7.95 0.7 0
8.25 0.7 0
8.55 0.7 0
8.85 0.7 0
9.15 0.7 0
9.45 0.7 0
9.75 0.7 0
10.05 0.7 0
10.35 0.7 0
10.65 0.7 0
10.95 0.7 0
11.25 0.7 0
11.55 0.7 0
11.85 0.7 0
12.15 0.7 0
12.45 0.7 0
12.75 0.7 0
13.05 0.7 0
13.35 0.7 0
13.65 0.7 0
13.95 0.7 0
14.25 0.7 0
14.55 0.7 0
14.85 0.7 0
15.15 0.7 0
15.45 0.7 0
15.75 0.7 0
16.05 0.7 0
16.35 0.7 0
16.65 0.7 0
16.95 0.7 0
17.25 0.7 0
17.55 0.7 0
17.85 0.7 0
18.15 0.7 0
18.45 0.7 0
18.75 0.7 0
19.05 0.7 0
19.35 0.7 0
19.65 0.7 0
19.95 0.7 0
20.25 0.7 0
20.55 0.7 0
20.85 0.7 0
21.15 0.7 0
21.45 0.7 0
21.75 0.7 0
22.05 0.7 0
22.35 0.7 0
22.65 0.7 0
22.95 0.7 0
23.25 0.7 0
23.55 0.7 0
23.85 0.7 0
24.15 0.7 0
24.45 0.7 0
24.75 0.7 0
25.05 0.7 0
25.35 0.7 0
25.65 0.7 0
25.95 0.7 0
26.25 0.7 0
26.55 0.7 0
26.85 0.7 0
27.15 0.7 0
27.45 0.7 0
27.75 0.7 0
28.05 0.7 0
28.35 0.7 0
28.65 0.7 0
28.95 0.7 0
29.25 0.7 0
29.55 0.7 0
29.85 0.7 0
30 0.7 0
0 1.05 0
0.15 1.05 0
0.45 1.05 0
0.75 1.05 0
1.05 1.05 0
1.35 1.05 0
1.65 1.05 0
1.95 1.05 0
2.25 1.05 0
2.55 1.05 0
2.85 1.05 0
3.15 1.05 0
3.45 1.05 0
3.75 1.05 0
4.05 1.05 0
4.35 1.05 0
4.65 1.05 0
4.95 1.05 0
5.25 1.05 0
5.55 1.05 0
5.85 1.05 0
6.15 1.05 0
6.45 1.05 0
6.75 1.05 0
7.05 1.05 0
7.35 1.05 0
7.65 1.05 0
7.95 1.05 0
8.25 1.05 0
8.55 1.05 0
8.85 1.05 0
9.15 1.05 0
9.45 1.05 0
9.75 1.05 0
10.05 1.05 0
10.35 1.05 0
10.65 1.05 0
10.95 1.05 0
11.25 1.05 0
11.55 1.05 0
11.85 1.05 0
12.15 1.05 0
12.45 1.05 0
12.75 1.05 0
13.05 1.05 0
13.35 1.05 0
13.65 1.05 0
13.95 1.05 0
14.25 1.05 0
14.55 1.05 0
14.85 1.05 0
15.15 1.05 0
15.45 1.05 0
15.75 1.05 0
16.05 1.05 0
16.35 1.05 0
16.65 1.05 0
16.95 1.05 0
17.25 1.05 0
17.55 1.05 0
17.85 1.05 0
18.15 1.05 0
18.45 1.05 0
18.75 1.05 0
19.05 1.05 0
19.35 1.05 0
19.65 1.05 0
19.95 1.05 0
20.25 1.05 0
20.55 1.05 0
20.85 1.05 0
21.15 1.05 0
21.45 1.05 0
21.75 1.05 0
22.05 1.05 0
22.35 1.05 0
22.65 1.05 0
22.95 1.05 0
23.25 1.05 0
23.55 1.05 0
23.85 1.05 0
24.15 1.05 0
24.45 1.05 0
24.75 1.05 0
25.05 1.05 0
25.35 1.05 0
25.65 1.05 0
25.95 1.05 0
26.25 1.05 0
26.55 1.05 0
26.85 1.05 0
27.15 1.05 0
27.45 1.05 0
27.75 1.05 0
28.05 1.05 0
28.35 1.05 0
28.65 1.05 0
28.95 1.05 0
29.25 1.05 0
29.55 1.05 0
29.85 1.05 0
30 1.05 0
0 1.4 0
0.15 1.4 0
0.45 1.4 0
0.75 1.4 0
1.05 1.4 0
1.35 1.4 0
1.65 1.4 0
1.95 1.4 0
2.25 1.4 0
2.55 1.4 0
2.85 1.4 0
3.15 1.4 0
3.45 1.4 0
3.75 1.4 0
4.05 1.4 0
4.35 1.4 0
4.65 1.4 0
4.95 1.4 0
5.25 1.4 0
5.55 1.4 0
5.85 1.4 0
6.15 1.4 0
6.45 1.4 0
6.75 1.4 0
7.05 1.4 0
7.35 1.4 0
7.65 1.4 0
7.95 1.4 0
8.25 1.4 0
8.55 1.4 0
8.85 1.4 0
9.15 1.4 0
9.45 1.4 0
9.75 1.4 0
10.05 1.4 0
10.35 1.4 0
10.65 1.4 0
10.95 1.4 0
11.25 1.4 0
11.55 1.4 0
11.85 1.4 0
12.15 1.4 0
12.45 1.4 0
12.75 1.4 0
13.05 1.4 0
13.35 1.4 0
13.65 1.4 0
13.95 1.4 0
14.25 1.4 0
14.55 1.4 0
14.85 1.4 0
15.15 1.4 0
15.45 1.4 0
15.75 1.4 0
16.05 1.4 0
16.35 1.4 0
16.65 1.4 0
16.95 1.4 0
17.25 1.4 0
17.55 1.4 0
17.85 1.4 0
18.15 1.4 0
18.45 1.4 0
18.75 1.4 0
19.05 1.4 0
19.35 1.4 0
19.65 1.4 0
19.95 1.4 0
20.25 1.4 0
20.55 1.4 0
20.85 1.4 0
21.15 1.4 0
21.45 1.4 0
21.75 1.4 0
22.05 1.4 0
22.35 1.4 0
22.65 1.4 0
22.95 1.4 0
23.25 1.4 0
23.55 1.4 0
23.85 1.4 0
24.15 1.4 0
24.45 1.4 0
24.75 1.4 0
25.05 1.4 0
25.35 1.4 0
25.65 1.4 0
25.95 1.4 0
26.25 1.4 0
26.55 1.4 0
26.85 1.4 0
27.15 1.4 0
27.45 1.4 0
27.75 1.4 0
28.05 1.4 0
28.35 1.4 0
28.65 1.4 0
28.95 1.4 0
29.25 1.4 0
29.55 1.4 0
29.85 1.4 0
30 1.4 0
0 1.75 0
0.15 1.75 0
0.45 1.75 0
0.75 1.75 0
1.05 1.75 0
1.35 1.75 0
1.65 1.75 0
1.95 1.75 0
2.25 1.75 0
2.55 1.75 0
2.85 1.75 0
3.15 1.75 0
3.45 1.75 0
3.75 1.75 0
4.05 1.75 0
4.35 1.75 0
4.65 1.75 0
4.95 1.75 0
5.25 1.75 0
5.55 1.75 0
5.85 1.75 0
6.15 1.75 0
6.45 1.75 0
6.75 1.75 0
7.05 1.75 0
7.35 1.75 0
7.65 1.75 0
7.95 1.75 0
8.25 1.75 0
8.55 1.75 0
8.85 1.75 0
9.15 1.75 0
9.45 1.75 0
9.75 1.75 0
10.05 1.75 0
10.35 1.75 0
10.65 1.75 0
10.95 1.75 0
11.25 1.75 0
11.55 1.75 0
11.85 1.75 0
12.15 1.75 0
12.45 1.75 0
12.75 1.75 0
13.05 1.75 0
13.35 1.75 0
13.65 1.75 0
13.95 1.75 0
14.25 1.75 0
14.55 1.75 0
14.85 1.75 0
15.15 1.75 0
15.45 1.75 0
15.75 1.75 0
16.05 1.75 0
16.35 1.75 0
16.65 1.75 0
16.95 1.75 0
17.25 1.75 0
17.55 1.75 0
17.85 1.75 0
18.15 1.75 0
18.45 1.75 0
18.75 1.75 0
19.05 1.75 0
19.35 1.75 0
19.65 1.75 0
19.95 1.75 0
20.25 1.75 0
20.55 1.75 0
20.85 1.75 0
21.15 1.75 0
21.45 1.75 0
21.75 1.75 0
22.05 1.75 0
22.35 1.75 0
22.65 1.75 0
22.95 1.75 0
23.25 1.75 0
23.55 1.75 0
23.85 1.75 0
24.15 1.75 0
24.45 1.75 0
24.75 1.75 0
25.05 1.75 0
25.35 1.75 0
25.65 1.75 0
25.95 1.75 0
26.25 1.75 0
26.55 1.75 0
26.85 1.75 0
27.15 1.75 0
27.45 1.75 0
27.75 1.75 0
28.05 1.75 0
28.35 1.75 0
28.65 1.75 0
28.95 1.75 0
29.25 1.75 0
29.55 1.75 0
29.85 1.75 0
30 1.75 0
0 2.1 0
0.15 2.1 0
0.45 2.1 0
0.75 2.1 0
1.05 2.1 0
1.35 2.1 0
1.65 2.1 0
1.95 2.1 0
2.25 2.1 0
2.55 2.1 0
2.85 2.1 0
3.15 2.1 0
3.45 2.1 0
3.75 2.1 0
4.05 2.1 0
4.35 2.1 0
4.65 2.1 0
4.95 2.1 0
5.25 2.1 0
5.55 2.1 0
5.85 2.1 0
6.15 2.1 0
6.45 2.1 0
6.75 2.1 0
7.05 2.1 0
7.35 2.1 0
7.65 2.1 0
7.95 2.1 0
8.25 2.1 0
8.55 2.1 0
8.85 2.1 0
9.15 2.1 0
9.45 2.1 0
9.75 2.1 0
10.05 2.1 0
10.35 2.1 0
10.65 2.1 0
10.95 2.1 0
11.25 2.1 0
11.55 2.1 0
11.85 2.1 0
12.15 2.1 0
12.45 2.1 0
12.75 2.1 0
13.05 2.1 0
13.35 2.1 0
13.65 2.1 0
13.95 2.1 0
14.25 2.1 0
14.55 2.1 0
14.85 2.1 0
15.15 2.1 0
15.45 2.1 0
15.75 2.1 0
16.05 2.1 0
16.35 2.1 0
16.65 2.1 0
16.95 2.1 0
17.25 2.1 0
17.55 2.1 0
17.85 2.1 0
18.15 2.1 0
18.45 2.1 0
18.75 2.1 0
19.05 2.1 0
19.35 2.1 0
19.65 2.1 0
19.95 2.1 0
20.25 2.1 0
20.55 2.1 0
20.85 2.1 0
21.15 2.1 0
21.45 2.1 0
21.75 2.1 0
22.05 2.1 0
22.35 2.1 0
22.65 2.1 0
22.95 2.1 0
23.25 2.1 0
23.55 2.1 0
23.85 2.1 0
24.15 2.1 0
24.45 2.1 0
24.75 2.1 0
25.05 2.1 0
25.35 2.1 0
25.65 2.1 0
25.95 2.1 0
26.25 2.1 0
26.55 2.1 0
26.85 2.1 0
27.15 2.1 0
27.45 2.1 0
27.75 2.1 0
28.05 2.1 0
28.35 2.1 0
28.65 2.1 0
28.95 2.1 0
29.25 2.1 0
29.55 2.1 0
29.85 2.1 0
30 2.1 0
0 2.45 0
0.15 2.45 0
0.45 2.45 0
0.75 2.45 0
1.05 2.45 0
1.35 2.45 0
1.65 2.45 0
1.95 2.45 0
2.25 2.45 0
2.55 2.45 0
2.85 2.45 0
3.15 2.45 0
3.45 2.45 0
3.75 2.45 0
4.05 2.45 0
4.35 2.45 0
4.65 2.45 0
4.95 2.45 0
5.25 2.45 0
5.55 2.45 0
5.85 2.45 0
6.15 2.45 0
6.45 2.45 0
6.75 2.45 0
7.05 2.45 0
7.35 2.45 0
7.65 2.45 0
7.95 2.45 0
8.25 2.45 0
8.55 2.45 0
8.85 2.45 0
9.15 2.45 0
9.45 2.45 0
9.75 2.45 0
10.05 2.45 0
10.35 2.45 0
10.65 2.45 0
10.95 2.45 0
11.25 2.45 0
11.55 2.45 0
11.85 2.45 0
12.15 2.45 0
12.45 2.45 0
12.75 2.45 0
13.05 2.45 0
13.35 2.45 0
13.65 2.45 0
13.95 2.45 0
14.25 2.45 0
14.55 2.45 0
14.85 2.45 0
15.15 2.45 0
15.45 2.45 0
15.75 2.45 0
16.05 2.45 0
16.35 2.45 0
16.65 2.45 0
16.95 2.45 0
17.25 2.45 0
17.55 2.45 0
17.85 2.45 0
18.15 2.45 0
18.45 2.45 0
18.75 2.45 0
19.05 2.45 0
19.35 2.45 0
19.65 2.45 0
19.95 2.45 0
20.25 2.45 0
20.55 2.45 0
20.85 2.45 0
21.15 2.45 0
21.45 2.45 0
21.75 2.45 0
22.05 2.45 0
22.35 2.45 0
22.65 2.45 0
22.95 2.45 0
23.25 2.45 0
23.55 2.45 0
23.85 2.45 0
24.15 2.45 0
24.45 2.45 0
24.75 2.45 0
25.05 2.45 0
25.35 2.45 0
25.65 2.45 0
25.95 2.45 0
26.25 2.45 0
26.55 2.45 0
26.85 2.45 0
27.15 2.45 0
27.45 2.45 0
27.75 2.45 0
28.05 2.45 0
28.35 2.45 0
28.65 2.45 0
28.95 2.45 0
29.25 2.45 0
29.55 2.45 0
29.85 2.45 0
30 2.45 0
0 2.8 0
0.15 2.8 0
0.45 2.8 0
0.75 2.8 0
1.05 2.8 0
1.35 2.8 0
1.65 2.8 0
1.95 2.8 0
2.25 2.8 0
2.55 2.8 0
2.85 2.8 0
3.15 2.8 0
3.45 2.8 0
3.75 2.8 0
4.05 2.8 0
4.35 2.8 0
4.65 2.8 0
4.95 2.8 0
5.25 2.8 0
5.55 2.8 0
5.85 2.8 0
6.15 2.8 0
6.45 2.8 0
6.75 2.8 0
7.05 2.8 0
7.35 2.8 0
7.65 2.8 0
7.95 2.8 0
8.25 2.8 0
8.55 2.8 0
8.85 2.8 0
9.15 2.8 0
9.45 2.8 0
9.75 2.8 0
10.05 2.8 0
10.35 2.8 0
10.65 2.8 0
10.95 2.8 0
11.25 2.8 0
11.55 2.8 0
11.85 2.8 0
12.15 2.8 0
12.45 2.8 0
12.75 2.8 0
13.05 2.8 0
13.35 2.8 0
13.65 2.8 0
13.95 2.8 0
14.25 2.8 0
14.55 2.8 0
14.85 2.8 0
15.15 2.8 0
15.45 2.8 0
15.75 2.8 0
16.05 2.8 0
16.35 2.8 0
16.65 2.8 0
16.95 2.8 0
17.25 2.8 0
17.55 2.8 0
17.85 2.8 0
18.15 2.8 0
18.45 2.8 0
18.75 2.8 0
19.05 2.8 0
19.35 2.8 0
19.65 2.8 0
19.95 2.8 0
20.25 2.8 0
20.55 2.8 0
20.85 2.8 0
21.15 2.8 0
21.45 2.8 0
21.75 2.8 0
22.05 2.8 0
22.35 2.8 0
22.65 2.8 0
22.95 2.8 0
23.25 2.8 0
23.55 2.8 0
23.85 2.8 0
24.15 2.8 0
24.45 2.8 0
24.75 2.8 0
25.05 2.8 0
25.35 2.8 0
25.65 2.8 0
25.95 2.8 0
26.25 2.8 0
26.55 2.8 0
26.85 2.8 0
27.15 2.8 0
27.45 2.8 0
27.75 2.8 0
28.05 2.8 0
28.35 2.8 0
28.65 2.8 0
28.95 2.8 0
29.25 2.8 0
29.55 2.8 0
29.85 2.8 0
30 2.8 0
0 3.15 0
0.15 3.15 0
0.45 3.15 0
0.75 3.15 0
1.05 3.15 0
1.35 3.15 0
1.65 3.15 0
1.95 3.15 0
2.25 3.15 0
2.55 3.15 0
2.85 3.15 0
3.15 3.15 0
3.45 3.15 0
3.75 3.15 0
4.05 3.15 0
4.35 3.15 0
4.65 3.15 0
4.95 3.15 0
5.25 3.15 0
5.55 3.15 0
5.85 3.15 0
6.15 3.15 0
6.45 3.15 0
6.75 3.15 0
7.05 3.15 0
7.35 3.15 0
7.65 3.15 0
7.95 3.15 0
8.25 3.15 0
8.55 3.15 0
8.85 3.15 0
9.15 3.15 0
9.45 3.15 0
9.75 3.15 0
10.05 3.15 0
10.35 3.15 0
10.65 3.15 0
10.95 3.15 0
11.25 3.15 0
11.55 3.15 0
11.85 3.15 0
12.15 3.15 0
12.45 3.15 0
12.75 3.15 0
13.05 3.15 0
13.35 3.15 0
13.65 3.15 0
13.95 3.15 0
14.25 3.15 0
14.55 3.15 0
14.85 3.15 0
15.15 3.15 0
15.45 3.15 0
15.75 3.15 0
16.05 3.15 0
16.35 3.15 0
16.65 3.15 0
16.95 3.15 0
17.25 3.15 0
17.55 3.15 0
17.85 3.15 0
18.15 3.15 0
18.45 3.15 0
18.75 3.15 0
19.05 3.15 0
19.35 3.15 0
19.65 3.15 0
19.95 3.15 0
20.25 3.15 0
20.55 3.15 0
20.85 3.15 0
21.15 3.15 0
21.45 3.15 0
21.75 3.15 0
22.05 3.15 0
22.35 3.15 0
22.65 3.15 0
22.95 3.15 0
23.25 3.15 0
23.55 3.15 0
23.85 3.15 0
24.15 3.15 0
24.45 3.15 0
24.75 3.15 0
25.05 3.15 0
25.35 3.15 0
25.65 3.15 0
25.95 3.15 0
26.25 3.15 0
26.55 3.15 0
26.85 3.15 0
27.15 3.15 0
27.45 3.15 0
27.75 3.15 0
28.05 3.15 0
28.35 3.15 0
28.65 3.15 0
28.95 3.15 0
29.25 3.15 0
29.55 3.15 0
29.85 3.15 0
30 3.15 0
0 3.5 0
0.15 3.5 0
0.45 3.5 0
0.75 3.5 0
1.05 3.5 0
1.35 3.5 0
1.65 3.5 0
1.95 3.5 0
2.25 3.5 0
2.55 3.5 0
2.85 3.5 0
3.15 3.5 0
3.45 3.5 0
3.75 3.5 0
4.05 3.5 0
4.35 3.5 0
4.65 3.5 0
4.95 3.5 0
5.25 3.5 0
5.55 3.5 0
5.85 3.5 0
6.15 3.5 0
6.45 3.5 0
6.75 3.5 0
7.05 3.5 0
7.35 3.5 0
7.65 3.5 0
7.95 3.5 0
8.25 3.5 0
8.55 3.5 0
8.85 3.5 0
9.15 3.5 0
9.45 3.5 0
9.75 3.5 0
10.05 3.5 0
10.35 3.5 0
10.65 3.5 0
10.95 3.5 0
11.25 3.5 0
11.55 3.5 0
11.85 3.5 0
12.15 3.5 0
12.45 3.5 0
12.75 3.5 0
13.05 3.5 0
13.35 3.5 0
13.65 3.5 0
13.95 3.5 0
14.25 3.5 0
14.55 3.5 0
14.85 3.5 0
15.15 3.5 0
15.45 3.5 0
15.75 3.5 0
16.05 3.5 0
16.35 3.5 0
16.65 3.5 0
16.95 3.5 0
17.25 3.5 0
17.55 3.5 0
17.85 3.5 0
18.15 3.5 0
18.45 3.5 0
18.75 3.5 0
19.05 3.5 0
19.35 3.5 0
19.65 3.5 0
19.95 3.5 0
20.25 3.5 0
20.55 3.5 0
20.85 3.5 0
21.15 3.5 0
21.45 3.5 0
21.75 3.5 0
22.05 3.5 0
22.35 3.5 0
22.65 3.5 0
22.95 3.5 0
23.25 3.5 0
23.55 3.5 0
23.85 3.5 0
24.15 3.5 0
24.45 3.5 0
24.75 3.5 0
25.05 3.5 0
25.35 3.5 0
25.65 3.5 0
25.95 3.5 0
26.25 3.5 0
26.55 3.5 0
26.85 3.5 0
27.15 3.5 0
27.45 3.5 0
27.75 3.5 0
28.05 3.5 0
28.35 3.5 0
28.65 3.5 0
28.95 3.5 0
29.25 3.5 0
29.55 3.5 0
29.85 3.5 0
30 3.5 0
0 3.85 0
0.15 3.85 0
0.45 3.85 0
0.75 3.85 0
1.05 3.85 0
1.35 3.85 0
1.65 3.85 0
1.95 3.85 0
2.25 3.85 0
2.55 3.85 0
2.85 3.85 0
3.15 3.85 0
3.45 3.85 0
3.75 3.85 0
4.05 3.85 0
4.35 3.85 0
4.65 3.85 0
4.95 3.85 0
5.25 3.85 0
5.55 3.85 0
5.85 3.85 0
6.15 3.85 0
6.45 3.85 0
6.75 3.85 0
7.05 3.85 0
7.35 3.85 0
7.65 3.85 0
7.95 3.85 0
8.25 3.85 0
8.55 3.85 0
8.85 3.85 0
9.15 3.85 0
9.45 3.85 0
9.75 3.85 0
10.05 3.85 0
10.35 3.85 0
10.65 3.85 0
10.95 3.85 0
11.25 3.85 0
11.55 3.85 0
11.85 3.85 0
12.15 3.85 0
12.45 3.85 0
12.75 3.85 0
13.05 3.85 0
13.35 3.85 0
13.65 3.85 0
13.95 3.85 0
14.25 3.85 0
14.55 3.85 0
14.85 3.85 0
15.15 3.85 0
15.45 3.85 0
15.75 3.85 0
16.05 3.85 0
16.35 3.85 0
16.65 3.85 0
16.95 3.85 0
17.25 3.85 0
17.55 3.85 0
17.85 3.85 0
18.15 3.85 0
18.45 3.85 0
18.75 3.85 0
19.05 3.85 0
19.35 3.85 0
19.65 3.85 0
19.95 3.85 0
20.25 3.85 0
20.55 3.85 0
20.85 3.85 0
21.15 3.85 0
21.45 3.85 0
21.75 3.85 0
22.05 3.85 0
22.35 3.85 0
22.65 3.85 0
22.95 3.85 0
23.25 3.85 0
23.55 3.85 0
23.85 3.85 0
24.15 3.85 0
24.45 3.85 0
24.75 3.85 0
25.05 3.85 0
25.35 3.85 0
25.65 3.85 0
25.95 3.85 0
26.25 3.85 0
26.55 3.85 0
26.85 3.85 0
27.15 3.85 0
27.45 3.85 0
27.75 3.85 0
28.05 3.85 0
28.35 3.85 0
28.65 3.85 0
28.95 3.85 0
29.25 3.85 0
29.55 3.85 0
29.85 3.85 0
30 3.85 0
0 4.2 0
0.15 4.2 0
0.45 4.2 0
0.75 4.2 0
1.05 4.2 0
1.35 4.2 0
1.65 4.2 0
1.95 4.2 0
2.25 4.2 0
2.55 4.2 0
2.85 4.2 0
3.15 4.2 0
3.45 4.2 0
3.75 4.2 0
4.05 4.2 0
4.35 4.2 0
4.65 4.2 0
4.95 4.2 0
5.25 4.2 0
5.55 4.2 0
5.85 4.2 0
6.15 4.2 0
6.45 4.2 0
6.75 4.2 0
7.05 4.2 0
7.35 4.2 0
7.65 4.2 0
7.95 4.2 0
8.25 4.2 0
8.55 4.2 0
8.85 4.2 0
9.15 4.2 0
9.45 4.2 0
9.75 4.2 0
10.05 4.2 0
10.35 4.2 0
10.65 4.2 0
10.95 4.2 0
11.25 4.2 0
11.55 4.2 0
11.85 4.2 0
12.15 4.2 0
12.45 4.2 0
12.75 4.2 0
13.05 4.2 0
13.35 4.2 0
13.65 4.2 0
13.95 4.2 0
14.25 4.2 0
14.55 4.2 0
14.85 4.2 0
15.15 4.2 0
15.45 4.2 0
15.75 4.2 0
16.05 4.2 0
16.35 4.2 0
16.65 4.2 0
16.95 4.2 0
17.25 4.2 0
17.55 4.2 0
17.85 4.2 0
18.15 4.2 0
18.45 4.2 0
18.75 4.2 0
19.05 4.2 0
19.35 4.2 0
19.65 4.2 0
19.95 4.2 0
20.25 4.2 0
20.55 4.2 0
20.85 4.2 0
21.15 4.2 0
21.45 4.2 0
21.75 4.2 0
22.05 4.2 0
22.35 4.2 0
22.65 4.2 0
22.95 4.2 0
23.25 4.2 0
23.55 4.2 0
23.85 4.2 0
24.15 4.2 0
24.45 4.2 0
24.75 4.2 0
25.05 4.2 0
25.35 4.2 0
25.65 4.2 0
25.95 4.2 0
26.25 4.2 0
26.55 4.2 0
26.85 4.2 0
27.15 4.2 0
27.45 4.2 0
27.75 4.2 0
28.05 4.2 0
28.35 4.2 0
28.65 4.2 0
28.95 4.2 0
29.25 4.2 0
29.55 4.2 0
29.85 4.2 0
30 4.2 0
0 4.55 0
0.15 4.55 0
0.45 4.55 0
0.75 4.55 0
1.05 4.55 0
1.35 4.55 0
1.65 4.55 0
1.95 4.55 0
2.25 4.55 0
2.55 4.55 0
2.85 4.55 0
3.15 4.55 0
3.45 4.55 0
3.75 4.55 0
4.05 4.55 0
4.35 4.55 0
4.65 4.55 0
4.95 4.55 0
5.25 4.55 0
5.55 4.55 0
5.85 4.55 0
6.15 4.55 0
6.45 4.55 0
6.75 4.55 0
7.05 4.55 0
7.35 4.55 0
7.65 4.55 0
7.95 4.55 0
8.25 4.55 0
8.55 4.55 0
8.85 4.55 0
9.15 4.55 0
9.45 4.55 0
9.75 4.55 0
10.05 4.55 0
10.35 4.55 0
10.65 4.55 0
10.95 4.55 0
11.25 4.55 0
11.55 4.55 0
11.85 4.55 0
12.15 4.55 0
12.45 4.55 0
12.75 4.55 0
13.05 4.55 0
13.35 4.55 0
13.65 4.55 0
13.95 4.55 0
14.25 4.55 0
14.55 4.55 0
14.85 4.55 0
15.15 4.55 0
15.45 4.55 0
15.75 4.55 0
16.05 4.55 0
16.35 4.55 0
16.65 4.55 0
16.95 4.55 0
17.25 4.55 0
17.55 4.55 0
17.85 4.55 0
18.15 4.55 0
18.45 4.55 0
18.75 4.55 0
19.05 4.55 0
19.35 4.55 0
19.65 4.55 0
19.95 4.55 0
20.25 4.55 0
20.55 4.55 0
20.85 4.55 0
21.15 4.55 0
21.45 4.55 0
21.75 4.55 0
22.05 4.55 0
22.35 4.55 0
22.65 4.55 0
22.95 4.55 0
23.25 4.55 0
23.55 4.55 0
23.85 4.55 0
24.15 4.55 0
24.45 4.55 0
24.75 4.55 0
25.05 4.55 0
25.35 4.55 0
25.65 4.55 0
25.95 4.55 0
26.25 4.55 0
26.55 4.55 0
26.85 4.55 0
27.15 4.55 0
27.45 4.55 0
27.75 4.55 0
28.05 4.55 0
28.35 4.55 0
28.65 4.55 0
28.95 4.55 0
29.25 4.55 0
29.55 4.55 0
29.85 4.55 0
30 4.55 0
0 4.9 0
0.15 4.9 0
0.45 4.9 0
0.75 4.9 0
1.05 4.9 0
1.35 4.9 0
1.65 4.9 0
1.95 4.9 0
2.25 4.9 0
2.55 4.9 0
2.85 4.9 0
3.15 4.9 0
3.45 4.9 0
3.75 4.9 0
4.05 4.9 0
4.35 4.9 0
4.65 4.9 0
4.95 4.9 0
5.25 4.9 0
5.55 4.9 0
5.85 4.9 0
6.15 4.9 0
6.45 4.9 0
6.75 4.9 0
7.05 4.9 0
7.35 4.9 0
7.65 4.9 0
7.95 4.9 0
8.25 4.9 0
8.55 4.9 0
8.85 4.9 0
9.15 4.9 0
9.45 4.9 0
9.75 4.9 0
10.05 4.9 0
10.35 4.9 0
10.65 4.9 0
10.95 4.9 0
11.25 4.9 0
11.55 4.9 0
11.85 4.9 0
12.15 4.9 0
12.45 4.9 0
12.75 4.9 0
13.05 4.9 0
13.35 4.9 0
13.65 4.9 0
13.95 4.9 0
14.25 4.9 0
14.55 4.9 0
14.85 4.9 0
15.15 4.9 0
15.45 4.9 0
15.75 4.9 0
16.05 4.9 0
16.35 4.9 0
16.65 4.9 0
16.95 4.9 0
17.25 4.9 0
17.55 4.9 0
17.85 4.9 0
18.15 4.9 0
18.45 4.9 0
18.75 4.9 0
19.05 4.9 0
19.35 4.9 0
19.65 4.9 0
19.95 4.9 0
20.25 4.9 0
20.55 4.9 0
20.85 4.9 0
21.15 4.9 0
21.45 4.9 0
21.75 4.9 0
22.05 4.9 0
22.35 4.9 0
22.65 4.9 0
22.95 4.9 0
23.25 4.9 0
23.55 4.9 0
23.85 4.9 0
24.15 4.9 0
24.45 4.9 0
24.75 4.9 0
25.05 4.9 0
25.35 4.9 0
25.65 4.9 0
25.95 4.9 0
26.25 4.9 0
26.55 4.9 0
26.85 4.9 0
27.15 4.9 0
27.45 4.9 0
27.75 4.9 0
28.05 4.9 0
28.35 4.9 0
28.65 4.9 0
28.95 4.9 0
29.25 4.9 0
29.55 4.9 0
29.85 4.9 0
30 4.9 0
0 5.25 0
0.15 5.25 0
0.45 5.25 0
0.75 5.25 0
1.05 5.25 0
1.35 5.25 0
1.65 5.25 0
1.95 5.25 0
2.25 5.25 0
2.55 5.25 0
2.85 5.25 0
3.15 5.25 0
3.45 5.25 0
3.75 5.25 0
4.05 5.25 0
4.35 5.25 0
4.65 5.25 0
4.95 5.25 0
5.25 5.25 0
5.55 5.25 0
5.85 5.25 0
6.15 5.25 0
6.45 5.25 0
6.75 5.25 0
7.05 5.25 0
7.35 5.25 0
7.65 5.25 0
7.95 5.25 0
8.25 5.25 0
8.55 5.25 0
8.85 5.25 0
9.15 5.25 0
9.45 5.25 0
9.75 5.25 0
10.05 5.25 0
10.35 5.25 0
10.65 5.25 0
10.95 5.25 0
11.25 5.25 0
11.55 5.25 0
11.85 5.25 0
12.15 5.25 0
12.45 5.25 0
12.75 5.25 0
13.05 5.25 0
13.35 5.25 0
13.65 5.25 0
13.95 5.25 0
14.25 5.25 0
14.55 5.25 0
14.85 5.25 0
15.15 5.25 0
15.45 5.25 0
15.75 5.25 0
16.05 5.25 0
16.35 5.25 0
16.65 5.25 0
16.95 5.25 0
17.25 5.25 0
17.55 5.25 0
17.85 5.25 0
18.15 5.25 0
18.45 5.25 0
18.75 5.25 0
19.05 5.25 0
19.35 5.25 0
19.65 5.25 0
19.95 5.25 0
20.25 5.25 0
20.55 5.25 0
20.85 5.25 0
21.15 5.25 0
21.45 5.25 0
21.75 5.25 0
22.05 5.25 0
22.35 5.25 0
22.65 5.25 0
22.95 5.25 0
23.25 5.25 0
23.55 5.25 0
23.85 5.25 0
24.15 5.25 0
24.45 5.25 0
24.75 5.25 0
25.05 5.25 0
25.35 5.25 0
25.65 5.25 0
25.95 5.25 0
26.25 5.25 0
26.55 5.25 0
26.85 5.25 0
27.15 5.25 0
27.45 5.25 0
27.75 5.25 0
28.05 5.25 0
28.35 5.25 0
28.65 5.25 0
28.95 5.25 0
29.25 5.25 0
29.55 5.25 0
29.85 5.25 0
30 5.25 0
0 5.6 0
0.15 5.6 0
0.45 5.6 0
0.75 5.6 0
1.05 5.6 0
1.35 5.6 0
1.65 5.6 0
1.95 5.6 0
2.25 5.6 0
2.55 5.6 0
2.85 5.6 0
3.15 5.6 0
3.45 5.6 0
3.75 5.6 0
4.05 5.6 0
4.35 5.6 0
4.65 5.6 0
4.95 5.6 0
5.25 5.6 0
5.55 5.6 0
5.85 5.6 0
6.15 5.6 0
6.45 5.6 0
6.75 5.6 0
7.05 5.6 0
7.35 5.6 0
7.65 5.6 0
7.95 5.6 0
8.25 5.6 0
8.55 5.6 0
8.85 5.6 0
9.15 5.6 0
9.45 5.6 0
9.75 5.6 0
10.05 5.6 0
10.35 5.6 0
10.65 5.6 0
10.95 5.6 0
11.25 5.6 0
11.55 5.6 0
11.85 5.6 0
12.15 5.6 0
12.45 5.6 0
12.75 5.6 0
13.05 5.6 0
13.35 5.6 0
13.65 5.6 0
13.95 5.6 0
14.25 5.6 0
14.55 5.6 0
14.85 5.6 0
15.15 5.6 0
15.45 5.6 0
15.75 5.6 0
16.05 5.6 0
16.35 5.6 0
16.65 5.6 0
16.95 5.6 0
17.25 5.6 0
17.55 5.6 0
17.85 5.6 0
18.15 5.6 0
18.45 5.6 0
18.75 5.6 0
19.05 5.6 0
19.35 5.6 0
19.65 5.6 0
19.95 5.6 0
20.25 5.6 0
20.55 5.6 0
20.85 5.6 0
21.15 5.6 0
21.45 5.6 0
21.75 5.6 0
22.05 5.6 0
22.35 5.6 0
22.65 5.6 0
22.95 5.6 0
23.25 5.6 0
23.55 5.6 0
23.85 5.6 0
24.15 5.6 0
24.45 5.6 0
24.75 5.6 0
25.05 5.6 0
25.35 5.6 0
25.65 5.6 0
25.95 5.6 0
26.25 5.6 0
26.55 5.6 0
26.85 5.6 0
27.15 5.6 0
27.45 5.6 0
27.75 5.6 0
28.05 5.6 0
28.35 5.6 0
28.65 5.6 0
28.95 5.6 0
29.25 5.6 0
29.55 5.6 0
29.85 5.6 0
30 5.6 0
0 5.95 0
0.15 5.95 0
0.45 5.95 0
0.75 5.95 0
1.05 5.95 0
1.35 5.95 0
1.65 5.95 0
1.95 5.95 0
2.25 5.95 0
2.55 5.95 0
2.85 5.95 0
3.15 5.95 0
3.45 5.95 0
3.75 5.95 0
4.05 5.95 0
4.35 5.95 0
4.65 5.95 0
4.95 5.95 0
5.25 5.95 0
5.55 5.95 0
5.85 5.95 0
6.15 5.95 0
6.45 5.95 0
6.75 5.95 0
7.05 5.95 0
7.35 5.95 0
7.65 5.95 0
7.95 5.95 0
8.25 5.95 0
8.55 5.95 0
8.85 5.95 0
9.15 5.95 0
9.45 5.95 0
9.75 5.95 0
10.05 5.95 0
10.35 5.95 0
10.65 5.95 0
10.95 5.95 0
11.25 5.95 0
11.55 5.95 0
11.85 5.95 0
12.15 5.95 0
12.45 5.95 0
12.75 5.95 0
13.05 5.95 0
13.35 5.95 0
13.65 5.95 0
13.95 5.95 0
14.25 5.95 0
14.55 5.95 0
14.85 5.95 0
15.15 5.95 0
15.45 5.95 0
15.75 5.95 0
16.05 5.95 0
16.35 5.95 0
16.65 5.95 0
16.95 5.95 0
17.25 5.95 0
17.55 5.95 0
17.85 5.95 0
18.15 5.95 0
18.45 5.95 0
18.75 5.95 0
19.05 5.95 0
19.35 5.95 0
19.65 5.95 0
19.95 5.95 0
20.25 5.95 0
20.55 5.95 0
20.85 5.95 0
21.15 5.95 0
21.45 5.95 0
21.75 5.95 0
22.05 5.95 0
22.35 5.95 0
22.65 5.95 0
22.95 5.95 0
23.25 5.95 0
23.55 5.95 0
23.85 5.95 0
24.15 5.95 0
24.45 5.95 0
24.75 5.95 0
25.05 5.95 0
25.35 5.95 0
25.65 5.95 0
25.95 5.95 0
26.25 5.95 0
26.55 5.95 0
26.85 5.95 0
27.15 5.95 0
27.45 5.95 0
27.75 5.95 0
28.05 5.95 0
28.35 5.95 0
28.65 5.95 0
28.95 5.95 0
29.25 5.95 0
29.55 5.95 0
29.85 5.95 0
30 5.95 0
0 6.3 0
0.15 6.3 0
0.45 6.3 0
0.75 6.3 0
1.05 6.3 0
1.35 6.3 0
1.65 6.3 0
1.95 6.3 0
2.25 6.3 0
2.55 6.3 0
2.85 6.3 0
3.15 6.3 0
3.45 6.3 0
3.75 6.3 0
4.05 6.3 0
4.35 6.3 0
4.65 6.3 0
4.95 6.3 0
5.25 6.3 0
5.55 6.3 0
5.85 6.3 0
6.15 6.3 0
6.45 6.3 0
6.75 6.3 0
7.05 6.3 0
7.35 6.3 0
7.65 6.3 0
7.95 6.3 0
8.25 6.3 0
8.55 6.3 0
8.85 6.3 0
9.15 6.3 0
9.45 6.3 0
9.75 6.3 0
10.05 6.3 0
10.35 6.3 0
10.65 6.3 0
10.95 6.3 0
11.25 6.3 0
11.55 6.3 0
11.85 6.3 0
12.15 6.3 0
12.45 6.3 0
12.75 6.3 0
13.05 6.3 0
13.35 6.3 0
13.65 6.3 0
13.95 6.3 0
14.25 6.3 0
14.55 6.3 0
14.85 6.3 0
15.15 6.3 0
15.45 6.3 0
15.75 6.3 0
16.05 6.3 0
16.35 6.3 0
16.65 6.3 0
16.95 6.3 0
17.25 6.3 0
17.55 6.3 0
17.85 6.3 0
18.15 6.3 0
18.45 6.3 0
18.75 6.3 0
19.05 6.3 0
19.35 6.3 0
19.65 6.3 0
19.95 6.3 0
20.25 6.3 0
20.55 6.3 0
20.85 6.3 0
21.15 6.3 0
21.45 6.3 0
21.75 6.3 0
22.05 6.3 0
22.35 6.3 0
22.65 6.3 0
22.95 6.3 0
23.25 6.3 0
23.55 6.3 0
23.85 6.3 0
24.15 6.3 0
24.45 6.3 0
24.75 6.3 0
25.05 6.3 0
25.35 6.3 0
25.65 6.3 0
25.95 6.3 0
26.25 6.3 0
26.55 6.3 0
26.85 6.3 0
27.15 6.3 0
27.45 6.3 0
27.75 6.3 0
28.05 6.3 0
28.35 6.3 0
28.65 6.3 0
28.95 6.3 0
29.25 6.3 0
29.55 6.3 0
29.85 6.3 0
30 6.3 0
0 6.65 0
0.15 6.65 0
0.45 6.65 0
0.75 6.65 0
1.05 6.65 0
1.35 6.65 0
1.65 6.65 0
1.95 6.65 0
2.25 6.65 0
2.55 6.65 0
2.85 6.65 0
3.15 6.65 0
3.45 6.65 0
3.75 6.65 0
4.05 6.65 0
4.35 6.65 0
4.65 6.65 0
4.95 6.65 0
5.25 6.65 0
5.55 6.65 0
5.85 6.65 0
6.15 6.65 0
6.45 6.65 0
6.75 6.65 0
7.05 6.65 0
7.35 6.65 0
7.65 6.65 0
7.95 6.65 0
8.25 6.65 0
8.55 6.65 0
8.85 6.65 0
9.15 6.65 0
9.45 6.65 0
9.75 6.65 0
10.05 6.65 0
10.35 6.65 0
10.65 6.65 0
10.95 6.65 0
11.25 6.65 0
11.55 6.65 0
11.85 6.65 0
12.15 6.65 0
12.45 6.65 0
12.75 6.65 0
13.05 6.65 0
13.35 6.65 0
13.65 6.65 0
13.95 6.65 0
14.25 6.65 0
14.55 6.65 0
14.85 6.65 0
15.15 6.65 0
15.45 6.65 0
15.75 6.65 0
16.05 6.65 0
16.35 6.65 0
16.65 6.65 0
16.95 6.65 0
17.25 6.65 0
17.55 6.65 0
17.85 6.65 0
18.15 6.65 0
18.45 6.65 0
18.75 6.65 0
19.05 6.65 0
19.35 6.65 0
19.65 6.65 0
19.95 6.65 0
20.25 6.65 0
20.55 6.65 0
20.85 6.65 0
21.15 6.65 0
21.45 6.65 0
21.75 6.65 0
22.05 6.65 0
22.35 6.65 0
22.65 6.65 0
22.95 6.65 0
23.25 6.65 0
23.55 6.65 0
23.85 6.65 0
24.15 6.65 0
24.45 6.65 0
24.75 6.65 0
25.05 6.65 0
25.35 6.65 0
25.65 6.65 0
25.95 6.65 0
26.25 6.65 0
26.55 6.65 0
26.85 6.65 0
27.15 6.65 0
27.45 6.65 0
27.75 6.65 0
28.05 6.65 0
28.35 6.65 0
28.65 6.65 0
28.95 6.65 0
29.25 6.65 0
29.55 6.65 0
29.85 6.65 0
30 6.65 0
0 7 0
0.15 7 0
0.45 7 0
0.75 7 0
1.05 7 0
1.35 7 0
1.65 7 0
1.95 7 0
2.25 7 0
2.55 7 0
2.85 7 0
3.15 7 0
3.45 7 0
3.75 7 0
4.05 7 0
4.35 7 0
4.65 7 0
4.95 7 0
5.25 7 0
5.55 7 0
5.85 7 0
6.15 7 0
6.45 7 0
6.75 7 0
7.05 7 0
7.35 7 0
7.65 7 0
7.95 7 0
8.25 7 0
8.55 7 0
8.85 7 0
9.15 7 0
9.45 7 0
9.75 7 0
10.05 7 0
10.35 7 0
10.65 7 0
10.95 7 0
11.25 7 0
11.55 7 0
11.85 7 0
12.15 7 0
12.45 7 0
12.75 7 0
13.05 7 0
13.35 7 0
13.65 7 0
13.95 7 0
14.25 7 0
14.55 7 0
14.85 7 0
15.15 7 0
15.45 7 0
15.75 7 0
16.05 7 0
16.35 7 0
16.65 7 0
16.95 7 0
17.25 7 0
17.55 7 0
17.85 7 0
18.15 7 0
18.45 7 0
18.75 7 0
19.05 7 0
19.35 7 0
19.65 7 0
19.95 7 0
20.25 7 0
20.55 7 0
20.85 7 0
21.15 7 0
21.45 7 0
21.75 7 0
22.05 7 0
22.35 7 0
22.65 7 0
22.95 7 0
23.25 7 0
23.55 7 0
23.85 7 0
24.15 7 0
24.45 7 0
24.75 7 0
25.05 7 0
25.35 7 0
25.65 7 0
25.95 7 0
26.25 7 0
26.55 7 0
26.85 7 0
27.15 7 0
27.45 7 0
27.75 7 0
28.05 7 0
28.35 7 0
28.65 7 0
28.95 7 0
29.25 7 0
29.55 7 0
29.85 7 0
30 7 0
GEOMETRY ZN = 1, X=4, Y=2.1, T=LINE, LT = 0.3, CS=GRID
1
51
0 0
-0.00394265 0.0626666
-0.0157084 0.124345
-0.0351118 0.184062
-0.0618467 0.240877
-0.0954915 0.293893
-0.135516 0.342274
-0.181288 0.385257
-0.232087 0.422164
-0.28711 0.452414
-0.345492 0.475528
-0.406309 0.491144
-0.468605 0.499013
-0.531395 0.499013
-0.593691 0.491144
-0.654508 0.475528
-0.71289 0.452414
-0.767913 0.422164
-0.818712 0.385257
-0.864484 0.342274
-0.904508 0.293893
-0.938153 0.240877
-0.964888 0.184062
-0.984292 0.124345
-0.996057 0.0626666
-1 0
-0.996057 -0.0626666
-0.984292 -0.124345
-0.964888 -0.184062
-0.938153 -0.240877
-0.904508 -0.293893
-0.864484 -0.342274
-0.818712 -0.385257
-0.767913 -0.422164
-0.71289 -0.452414
-0.654508 -0.475528
-0.593691 -0.491144
-0.531395 -0.499013
-0.468605 -0.499013
-0.406309 -0.491144
-0.345492 -0.475528
-0.28711 -0.452414
-0.232087 -0.422164
-0.181288 -0.385257
-0.135516 -0.342274
-0.0954915 -0.293893
-0.0618467 -0.240877
-0.0351118 -0.184062
-0.0157084 -0.124345
-0.00394265 -0.0626666
0 0

GEOMETRY ZN = 1, X=4, Y=4.9, T=LINE, LT = 0.3, CS=GRID
1
51
0 0
-0.00394265 0.0626666
-0.0157084 0.124345
-0.0351118 0.184062
-0.0618467 0.240877
-0.0954915 0.293893
-0.135516 0.342274
-0.181288 0.385257
-0.232087 0.422164
-0.28711 0.452414
-0.345492 0.475528
-0.406309 0.491144
-0.468605 0.499013
-0.531395 0.499013
-0.593691 0.491144
-0.654508 0.475528
-0.71289 0.452414
-0.767913 0.422164
-0.818712 0.385257
-0.864484 0.342274
-0.904508 0.293893
-0.938153 0.240877
-0.964888 0.184062
-0.984292 0.124345
-0.996057 0.0626666
-1 0
-0.996057 -0.0626666
-0.984292 -0.124345
-0.964888 -0.184062
-0.938153 -0.240877
-0.904508 -0.293893
-0.864484 -0.342274
-0.818712 -0.385257
-0.767913 -0.422164
-0.71289 -0.452414
-0.654508 -0.475528
-0.593691 -0.491144
-0.531395 -0.499013
-0.468605 -0.499013
-0.406309 -0.491144
-0.345492 -0.475528
-0.28711 -0.452414
-0.232087 -0.422164
-0.181288 -0.385257
-0.135516 -0.342274
-0.0954915 -0.293893
-0.0618467 -0.240877
-0.0351118 -0.184062
-0.0157084 -0.124345
-0.00394265 -0.0626666
0 0

GEOMETRY ZN = 1, X=2, Y=1.9, T=LINE, LT = 0.3, CS=GRID
1
51
0 0
-0.00394265 0.0626666
-0.0157084 0.124345
-0.0351118 0.184062
-0.0618467 0.240877
-0.0954915 0.293893
-0.135516 0.342274
-0.181288 0.385257
-0.232087 0.422164
-0.28711 0.452414
-0.345492 0.475528
-0.406309 0.491144
-0.468605 0.499013
-0.531395 0.499013
-0.593691 0.491144
-0.654508 0.475528
-0.71289 0.452414
-0.767913 0.422164
-0.818712 0.385257
-0.864484 0.342274
-0.904508 0.293893
-0.938153 0.240877
-0.964888 0.184062
-0.984292 0.124345
-0.996057 0.0626666
-1 0
-0.996057 -0.0626666
-0.984292 -0.124345
-0.964888 -0.184062
-0.938153 -0.240877
-0.904508 -0.293893
-0.864484 -0.342274
-0.818712 -0.385257
-0.767913 -0.422164
-0.71289 -0.452414
-0.654508 -0.475528
-0.593691 -0.491144
-0.531395 -0.499013
-0.468605 -0.499013
-0.406309 -0.491144
-0.345492 -0.475528
-0.28711 -0.452414
-0.232087 -0.422164
-0.181288 -0.385257
-0.135516 -0.342274
-0.0954915 -0.293893
-0.0618467 -0.240877
-0.0351118 -0.184062
-0.0157084 -0.124345
-0.00394265 -0.0626666
0 0

GEOMETRY ZN = 1, X=2, Y=5.1, T=LINE, LT = 0.3, CS=GRID
1
51
0 0
-0.00394265 0.0626666
-0.0157084 0.124345
-0.0351118 0.184062
-0.0618467 0.240877
-0.0954915 0.293893
-0.135516 0.342274
-0.181288 0.385257
-0.232087 0.422164
-0.28711 0.452414
-0.345492 0.475528
-0.406309 0.491144
-0.468605 0.499013
-0.531395 0.499013
-0.593691 0.491144
-0.654508 0.475528
-0.71289 0.452414
-0.767913 0.422164
-0.818712 0.385257
-0.864484 0.342274
-0.904508 0.293893
-0.938153 0.240877
-0.964888 0.184062
-0.984292 0.124345
-0.996057 0.0626666
-1 0
-0.996057 -0.0626666
-0.984292 -0.124345
-0.964888 -0.184062
-0.938153 -0.240877
-0.904508 -0.293893
-0.864484 -0.342274
-0.818712 -0.385257
-0.767913 -0.422164
-0.71289 -0.452414
-0.654508 -0.475528
-0.593691 -0.491144
-0.531395 -0.499013
-0.468605 -0.499013
-0.406309 -0.491144
-0.345492 -0.475528
-0.28711 -0.452414
-0.232087 -0.422164
-0.181288 -0.385257
-0.135516 -0.342274
-0.0954915 -0.293893
-0.0618467 -0.240877
-0.0351118 -0.184062
-0.0157084 -0.124345
-0.00394265 -0.0626666
0 0

