title = "sample mesh"
Variables="x","y","u"
zone T="-1",  i=101, j=22, f=point
0 0 0
0.3 0 0
0.6 0 0
0.9 0 0
1.2 0 0
1.5 0 0
1.8 0 0
2.1 0 0
2.4 0 0
2.7 0 0
3 0 0
3.3 0 0
3.6 0 0
3.9 0 0
4.2 0 0
4.5 0 0
4.8 0 0
5.1 0 0
5.4 0 0
5.7 0 0
6 0 0
6.3 0 0
6.6 0 0
6.9 0 0
7.2 0 0
7.5 0 0
7.8 0 0
8.1 0 0
8.4 0 0
8.7 0 0
9 0 0
9.3 0 0
9.6 0 0
9.9 0 0
10.2 0 0
10.5 0 0
10.8 0 0
11.1 0 0
11.4 0 0
11.7 0 0
12 0 0
12.3 0 0
12.6 0 0
12.9 0 0
13.2 0 0
13.5 0 0
13.8 0 0
14.1 0 0
14.4 0 0
14.7 0 0
15 0 0
15.3 0 0
15.6 0 0
15.9 0 0
16.2 0 0
16.5 0 0
16.8 0 0
17.1 0 0
17.4 0 0
17.7 0 0
18 0 0
18.3 0 0
18.6 0 0
18.9 0 0
19.2 0 0
19.5 0 0
19.8 0 0
20.1 0 0
20.4 0 0
20.7 0 0
21 0 0
21.3 0 0
21.6 0 0
21.9 0 0
22.2 0 0
22.5 0 0
22.8 0 0
23.1 0 0
23.4 0 0
23.7 0 0
24 0 0
24.3 0 0
24.6 0 0
24.9 0 0
25.2 0 0
25.5 0 0
25.8 0 0
26.1 0 0
26.4 0 0
26.7 0 0
27 0 0
27.3 0 0
27.6 0 0
27.9 0 0
28.2 0 0
28.5 0 0
28.8 0 0
29.1 0 0
29.4 0 0
29.7 0 0
30 0 0
0 0.175 1.19437
0.3 0.175 1.19437
0.6 0.175 1.19437
0.9 0.175 1.19437
1.2 0.175 1.19437
1.5 0.175 1.19437
1.8 0.175 1.19437
2.1 0.175 1.19437
2.4 0.175 1.19437
2.7 0.175 1.19437
3 0.175 1.19437
3.3 0.175 1.19437
3.6 0.175 1.19437
3.9 0.175 1.19437
4.2 0.175 1.19437
4.5 0.175 1.19437
4.8 0.175 1.19437
5.1 0.175 1.19437
5.4 0.175 1.19437
5.7 0.175 1.19437
6 0.175 1.19437
6.3 0.175 1.19437
6.6 0.175 1.19437
6.9 0.175 1.19437
7.2 0.175 1.19437
7.5 0.175 1.19437
7.8 0.175 1.19437
8.1 0.175 1.19437
8.4 0.175 1.19437
8.7 0.175 1.19437
9 0.175 1.19437
9.3 0.175 1.19437
9.6 0.175 1.19437
9.9 0.175 1.19437
10.2 0.175 1.19437
10.5 0.175 1.19437
10.8 0.175 1.19437
11.1 0.175 1.19437
11.4 0.175 1.19437
11.7 0.175 1.19437
12 0.175 1.19437
12.3 0.175 1.19437
12.6 0.175 1.19437
12.9 0.175 1.19437
13.2 0.175 1.19437
13.5 0.175 1.19437
13.8 0.175 1.19437
14.1 0.175 1.19437
14.4 0.175 1.19437
14.7 0.175 1.19437
15 0.175 1.19437
15.3 0.175 1.19437
15.6 0.175 1.19437
15.9 0.175 1.19437
16.2 0.175 1.19437
16.5 0.175 1.19437
16.8 0.175 1.19437
17.1 0.175 1.19437
17.4 0.175 1.19437
17.7 0.175 1.19437
18 0.175 1.19437
18.3 0.175 1.19437
18.6 0.175 1.19437
18.9 0.175 1.19437
19.2 0.175 1.19437
19.5 0.175 1.19437
19.8 0.175 1.19437
20.1 0.175 1.19437
20.4 0.175 1.19437
20.7 0.175 1.19437
21 0.175 1.19437
21.3 0.175 1.19437
21.6 0.175 1.19437
21.9 0.175 1.19437
22.2 0.175 1.19437
22.5 0.175 1.19437
22.8 0.175 1.19437
23.1 0.175 1.19437
23.4 0.175 1.19437
23.7 0.175 1.19437
24 0.175 1.19437
24.3 0.175 1.19437
24.6 0.175 1.19437
24.9 0.175 1.19437
25.2 0.175 1.19437
25.5 0.175 1.19437
25.8 0.175 1.19437
26.1 0.175 1.19437
26.4 0.175 1.19437
26.7 0.175 1.19437
27 0.175 1.19437
27.3 0.175 1.19437
27.6 0.175 1.19437
27.9 0.175 1.19437
28.2 0.175 1.19437
28.5 0.175 1.19437
28.8 0.175 1.19437
29.1 0.175 1.19437
29.4 0.175 1.19437
29.7 0.175 1.19437
30 0.175 1.19437
0 0.525 3.39937
0.3 0.525 3.39937
0.6 0.525 3.39937
0.9 0.525 3.39937
1.2 0.525 3.39937
1.5 0.525 3.39937
1.8 0.525 3.39937
2.1 0.525 3.39937
2.4 0.525 3.39937
2.7 0.525 3.39937
3 0.525 3.39937
3.3 0.525 3.39937
3.6 0.525 3.39937
3.9 0.525 3.39937
4.2 0.525 3.39937
4.5 0.525 3.39937
4.8 0.525 3.39937
5.1 0.525 3.39937
5.4 0.525 3.39937
5.7 0.525 3.39937
6 0.525 3.39937
6.3 0.525 3.39937
6.6 0.525 3.39937
6.9 0.525 3.39937
7.2 0.525 3.39937
7.5 0.525 3.39937
7.8 0.525 3.39937
8.1 0.525 3.39937
8.4 0.525 3.39937
8.7 0.525 3.39937
9 0.525 3.39937
9.3 0.525 3.39937
9.6 0.525 3.39937
9.9 0.525 3.39937
10.2 0.525 3.39937
10.5 0.525 3.39937
10.8 0.525 3.39937
11.1 0.525 3.39937
11.4 0.525 3.39937
11.7 0.525 3.39937
12 0.525 3.39937
12.3 0.525 3.39937
12.6 0.525 3.39937
12.9 0.525 3.39937
13.2 0.525 3.39937
13.5 0.525 3.39937
13.8 0.525 3.39937
14.1 0.525 3.39937
14.4 0.525 3.39937
14.7 0.525 3.39937
15 0.525 3.39937
15.3 0.525 3.39937
15.6 0.525 3.39937
15.9 0.525 3.39937
16.2 0.525 3.39937
16.5 0.525 3.39937
16.8 0.525 3.39937
17.1 0.525 3.39937
17.4 0.525 3.39937
17.7 0.525 3.39937
18 0.525 3.39937
18.3 0.525 3.39937
18.6 0.525 3.39937
18.9 0.525 3.39937
19.2 0.525 3.39937
19.5 0.525 3.39937
19.8 0.525 3.39937
20.1 0.525 3.39937
20.4 0.525 3.39937
20.7 0.525 3.39937
21 0.525 3.39937
21.3 0.525 3.39937
21.6 0.525 3.39937
21.9 0.525 3.39937
22.2 0.525 3.39937
22.5 0.525 3.39937
22.8 0.525 3.39937
23.1 0.525 3.39937
23.4 0.525 3.39937
23.7 0.525 3.39937
24 0.525 3.39937
24.3 0.525 3.39937
24.6 0.525 3.39937
24.9 0.525 3.39937
25.2 0.525 3.39937
25.5 0.525 3.39937
25.8 0.525 3.39937
26.1 0.525 3.39937
26.4 0.525 3.39937
26.7 0.525 3.39937
27 0.525 3.39937
27.3 0.525 3.39937
27.6 0.525 3.39937
27.9 0.525 3.39937
28.2 0.525 3.39937
28.5 0.525 3.39937
28.8 0.525 3.39937
29.1 0.525 3.39937
29.4 0.525 3.39937
29.7 0.525 3.39937
30 0.525 3.39937
0 0.875 5.35938
0.3 0.875 5.35938
0.6 0.875 5.35938
0.9 0.875 5.35938
1.2 0.875 5.35938
1.5 0.875 5.35938
1.8 0.875 5.35938
2.1 0.875 5.35938
2.4 0.875 5.35938
2.7 0.875 5.35938
3 0.875 5.35938
3.3 0.875 5.35938
3.6 0.875 5.35938
3.9 0.875 5.35938
4.2 0.875 5.35938
4.5 0.875 5.35938
4.8 0.875 5.35938
5.1 0.875 5.35938
5.4 0.875 5.35938
5.7 0.875 5.35938
6 0.875 5.35938
6.3 0.875 5.35938
6.6 0.875 5.35938
6.9 0.875 5.35938
7.2 0.875 5.35938
7.5 0.875 5.35938
7.8 0.875 5.35938
8.1 0.875 5.35938
8.4 0.875 5.35938
8.7 0.875 5.35938
9 0.875 5.35938
9.3 0.875 5.35938
9.6 0.875 5.35938
9.9 0.875 5.35938
10.2 0.875 5.35938
10.5 0.875 5.35938
10.8 0.875 5.35938
11.1 0.875 5.35938
11.4 0.875 5.35938
11.7 0.875 5.35938
12 0.875 5.35938
12.3 0.875 5.35938
12.6 0.875 5.35938
12.9 0.875 5.35938
13.2 0.875 5.35938
13.5 0.875 5.35938
13.8 0.875 5.35938
14.1 0.875 5.35938
14.4 0.875 5.35938
14.7 0.875 5.35938
15 0.875 5.35938
15.3 0.875 5.35938
15.6 0.875 5.35938
15.9 0.875 5.35938
16.2 0.875 5.35938
16.5 0.875 5.35938
16.8 0.875 5.35938
17.1 0.875 5.35938
17.4 0.875 5.35938
17.7 0.875 5.35938
18 0.875 5.35938
18.3 0.875 5.35938
18.6 0.875 5.35938
18.9 0.875 5.35938
19.2 0.875 5.35938
19.5 0.875 5.35938
19.8 0.875 5.35938
20.1 0.875 5.35938
20.4 0.875 5.35938
20.7 0.875 5.35938
21 0.875 5.35938
21.3 0.875 5.35938
21.6 0.875 5.35938
21.9 0.875 5.35938
22.2 0.875 5.35938
22.5 0.875 5.35938
22.8 0.875 5.35938
23.1 0.875 5.35938
23.4 0.875 5.35938
23.7 0.875 5.35938
24 0.875 5.35938
24.3 0.875 5.35938
24.6 0.875 5.35938
24.9 0.875 5.35938
25.2 0.875 5.35938
25.5 0.875 5.35938
25.8 0.875 5.35938
26.1 0.875 5.35938
26.4 0.875 5.35938
26.7 0.875 5.35938
27 0.875 5.35938
27.3 0.875 5.35938
27.6 0.875 5.35938
27.9 0.875 5.35938
28.2 0.875 5.35938
28.5 0.875 5.35938
28.8 0.875 5.35938
29.1 0.875 5.35938
29.4 0.875 5.35938
29.7 0.875 5.35938
30 0.875 5.35938
0 1.225 7.07437
0.3 1.225 7.07437
0.6 1.225 7.07437
0.9 1.225 7.07437
1.2 1.225 7.07437
1.5 1.225 7.07437
1.8 1.225 7.07437
2.1 1.225 7.07437
2.4 1.225 7.07437
2.7 1.225 7.07437
3 1.225 7.07437
3.3 1.225 7.07437
3.6 1.225 7.07437
3.9 1.225 7.07437
4.2 1.225 7.07437
4.5 1.225 7.07437
4.8 1.225 7.07437
5.1 1.225 7.07437
5.4 1.225 7.07437
5.7 1.225 7.07437
6 1.225 7.07437
6.3 1.225 7.07437
6.6 1.225 7.07437
6.9 1.225 7.07437
7.2 1.225 7.07437
7.5 1.225 7.07437
7.8 1.225 7.07437
8.1 1.225 7.07437
8.4 1.225 7.07437
8.7 1.225 7.07437
9 1.225 7.07437
9.3 1.225 7.07437
9.6 1.225 7.07437
9.9 1.225 7.07437
10.2 1.225 7.07437
10.5 1.225 7.07437
10.8 1.225 7.07437
11.1 1.225 7.07437
11.4 1.225 7.07437
11.7 1.225 7.07437
12 1.225 7.07437
12.3 1.225 7.07437
12.6 1.225 7.07437
12.9 1.225 7.07437
13.2 1.225 7.07437
13.5 1.225 7.07437
13.8 1.225 7.07437
14.1 1.225 7.07437
14.4 1.225 7.07437
14.7 1.225 7.07437
15 1.225 7.07437
15.3 1.225 7.07437
15.6 1.225 7.07437
15.9 1.225 7.07437
16.2 1.225 7.07437
16.5 1.225 7.07437
16.8 1.225 7.07437
17.1 1.225 7.07437
17.4 1.225 7.07437
17.7 1.225 7.07437
18 1.225 7.07437
18.3 1.225 7.07437
18.6 1.225 7.07437
18.9 1.225 7.07437
19.2 1.225 7.07437
19.5 1.225 7.07437
19.8 1.225 7.07437
20.1 1.225 7.07437
20.4 1.225 7.07437
20.7 1.225 7.07437
21 1.225 7.07437
21.3 1.225 7.07437
21.6 1.225 7.07437
21.9 1.225 7.07437
22.2 1.225 7.07437
22.5 1.225 7.07437
22.8 1.225 7.07437
23.1 1.225 7.07437
23.4 1.225 7.07437
23.7 1.225 7.07437
24 1.225 7.07437
24.3 1.225 7.07437
24.6 1.225 7.07437
24.9 1.225 7.07437
25.2 1.225 7.07437
25.5 1.225 7.07437
25.8 1.225 7.07437
26.1 1.225 7.07437
26.4 1.225 7.07437
26.7 1.225 7.07437
27 1.225 7.07437
27.3 1.225 7.07437
27.6 1.225 7.07437
27.9 1.225 7.07437
28.2 1.225 7.07437
28.5 1.225 7.07437
28.8 1.225 7.07437
29.1 1.225 7.07437
29.4 1.225 7.07437
29.7 1.225 7.07437
30 1.225 7.07437
0 1.575 8.54437
0.3 1.575 8.54437
0.6 1.575 8.54437
0.9 1.575 8.54437
1.2 1.575 8.54437
1.5 1.575 8.54437
1.8 1.575 8.54437
2.1 1.575 8.54437
2.4 1.575 8.54437
2.7 1.575 8.54437
3 1.575 8.54437
3.3 1.575 8.54437
3.6 1.575 8.54437
3.9 1.575 8.54437
4.2 1.575 8.54437
4.5 1.575 8.54437
4.8 1.575 8.54437
5.1 1.575 8.54437
5.4 1.575 8.54437
5.7 1.575 8.54437
6 1.575 8.54437
6.3 1.575 8.54437
6.6 1.575 8.54437
6.9 1.575 8.54437
7.2 1.575 8.54437
7.5 1.575 8.54437
7.8 1.575 8.54437
8.1 1.575 8.54437
8.4 1.575 8.54437
8.7 1.575 8.54437
9 1.575 8.54437
9.3 1.575 8.54437
9.6 1.575 8.54437
9.9 1.575 8.54437
10.2 1.575 8.54437
10.5 1.575 8.54437
10.8 1.575 8.54437
11.1 1.575 8.54437
11.4 1.575 8.54437
11.7 1.575 8.54437
12 1.575 8.54437
12.3 1.575 8.54437
12.6 1.575 8.54437
12.9 1.575 8.54437
13.2 1.575 8.54437
13.5 1.575 8.54437
13.8 1.575 8.54437
14.1 1.575 8.54437
14.4 1.575 8.54437
14.7 1.575 8.54437
15 1.575 8.54437
15.3 1.575 8.54437
15.6 1.575 8.54437
15.9 1.575 8.54437
16.2 1.575 8.54437
16.5 1.575 8.54437
16.8 1.575 8.54437
17.1 1.575 8.54437
17.4 1.575 8.54437
17.7 1.575 8.54437
18 1.575 8.54437
18.3 1.575 8.54437
18.6 1.575 8.54437
18.9 1.575 8.54437
19.2 1.575 8.54437
19.5 1.575 8.54437
19.8 1.575 8.54437
20.1 1.575 8.54437
20.4 1.575 8.54437
20.7 1.575 8.54437
21 1.575 8.54437
21.3 1.575 8.54437
21.6 1.575 8.54437
21.9 1.575 8.54437
22.2 1.575 8.54437
22.5 1.575 8.54437
22.8 1.575 8.54437
23.1 1.575 8.54437
23.4 1.575 8.54437
23.7 1.575 8.54437
24 1.575 8.54437
24.3 1.575 8.54437
24.6 1.575 8.54437
24.9 1.575 8.54437
25.2 1.575 8.54437
25.5 1.575 8.54437
25.8 1.575 8.54437
26.1 1.575 8.54437
26.4 1.575 8.54437
26.7 1.575 8.54437
27 1.575 8.54437
27.3 1.575 8.54437
27.6 1.575 8.54437
27.9 1.575 8.54437
28.2 1.575 8.54437
28.5 1.575 8.54437
28.8 1.575 8.54437
29.1 1.575 8.54437
29.4 1.575 8.54437
29.7 1.575 8.54437
30 1.575 8.54437
0 1.925 9.76938
0.3 1.925 9.76938
0.6 1.925 9.76938
0.9 1.925 9.76938
1.2 1.925 9.76938
1.5 1.925 9.76938
1.8 1.925 9.76938
2.1 1.925 9.76938
2.4 1.925 9.76938
2.7 1.925 9.76938
3 1.925 9.76938
3.3 1.925 9.76938
3.6 1.925 9.76938
3.9 1.925 9.76938
4.2 1.925 9.76938
4.5 1.925 9.76938
4.8 1.925 9.76938
5.1 1.925 9.76938
5.4 1.925 9.76938
5.7 1.925 9.76938
6 1.925 9.76938
6.3 1.925 9.76938
6.6 1.925 9.76938
6.9 1.925 9.76938
7.2 1.925 9.76938
7.5 1.925 9.76938
7.8 1.925 9.76938
8.1 1.925 9.76938
8.4 1.925 9.76938
8.7 1.925 9.76938
9 1.925 9.76938
9.3 1.925 9.76938
9.6 1.925 9.76938
9.9 1.925 9.76938
10.2 1.925 9.76938
10.5 1.925 9.76938
10.8 1.925 9.76938
11.1 1.925 9.76938
11.4 1.925 9.76938
11.7 1.925 9.76938
12 1.925 9.76938
12.3 1.925 9.76938
12.6 1.925 9.76938
12.9 1.925 9.76938
13.2 1.925 9.76938
13.5 1.925 9.76938
13.8 1.925 9.76938
14.1 1.925 9.76938
14.4 1.925 9.76938
14.7 1.925 9.76938
15 1.925 9.76938
15.3 1.925 9.76938
15.6 1.925 9.76938
15.9 1.925 9.76938
16.2 1.925 9.76938
16.5 1.925 9.76938
16.8 1.925 9.76938
17.1 1.925 9.76938
17.4 1.925 9.76938
17.7 1.925 9.76938
18 1.925 9.76938
18.3 1.925 9.76938
18.6 1.925 9.76938
18.9 1.925 9.76938
19.2 1.925 9.76938
19.5 1.925 9.76938
19.8 1.925 9.76938
20.1 1.925 9.76938
20.4 1.925 9.76938
20.7 1.925 9.76938
21 1.925 9.76938
21.3 1.925 9.76938
21.6 1.925 9.76938
21.9 1.925 9.76938
22.2 1.925 9.76938
22.5 1.925 9.76938
22.8 1.925 9.76938
23.1 1.925 9.76938
23.4 1.925 9.76938
23.7 1.925 9.76938
24 1.925 9.76938
24.3 1.925 9.76938
24.6 1.925 9.76938
24.9 1.925 9.76938
25.2 1.925 9.76938
25.5 1.925 9.76938
25.8 1.925 9.76938
26.1 1.925 9.76938
26.4 1.925 9.76938
26.7 1.925 9.76938
27 1.925 9.76938
27.3 1.925 9.76938
27.6 1.925 9.76938
27.9 1.925 9.76938
28.2 1.925 9.76938
28.5 1.925 9.76938
28.8 1.925 9.76938
29.1 1.925 9.76938
29.4 1.925 9.76938
29.7 1.925 9.76938
30 1.925 9.76938
0 2.275 10.7494
0.3 2.275 10.7494
0.6 2.275 10.7494
0.9 2.275 10.7494
1.2 2.275 10.7494
1.5 2.275 10.7494
1.8 2.275 10.7494
2.1 2.275 10.7494
2.4 2.275 10.7494
2.7 2.275 10.7494
3 2.275 10.7494
3.3 2.275 10.7494
3.6 2.275 10.7494
3.9 2.275 10.7494
4.2 2.275 10.7494
4.5 2.275 10.7494
4.8 2.275 10.7494
5.1 2.275 10.7494
5.4 2.275 10.7494
5.7 2.275 10.7494
6 2.275 10.7494
6.3 2.275 10.7494
6.6 2.275 10.7494
6.9 2.275 10.7494
7.2 2.275 10.7494
7.5 2.275 10.7494
7.8 2.275 10.7494
8.1 2.275 10.7494
8.4 2.275 10.7494
8.7 2.275 10.7494
9 2.275 10.7494
9.3 2.275 10.7494
9.6 2.275 10.7494
9.9 2.275 10.7494
10.2 2.275 10.7494
10.5 2.275 10.7494
10.8 2.275 10.7494
11.1 2.275 10.7494
11.4 2.275 10.7494
11.7 2.275 10.7494
12 2.275 10.7494
12.3 2.275 10.7494
12.6 2.275 10.7494
12.9 2.275 10.7494
13.2 2.275 10.7494
13.5 2.275 10.7494
13.8 2.275 10.7494
14.1 2.275 10.7494
14.4 2.275 10.7494
14.7 2.275 10.7494
15 2.275 10.7494
15.3 2.275 10.7494
15.6 2.275 10.7494
15.9 2.275 10.7494
16.2 2.275 10.7494
16.5 2.275 10.7494
16.8 2.275 10.7494
17.1 2.275 10.7494
17.4 2.275 10.7494
17.7 2.275 10.7494
18 2.275 10.7494
18.3 2.275 10.7494
18.6 2.275 10.7494
18.9 2.275 10.7494
19.2 2.275 10.7494
19.5 2.275 10.7494
19.8 2.275 10.7494
20.1 2.275 10.7494
20.4 2.275 10.7494
20.7 2.275 10.7494
21 2.275 10.7494
21.3 2.275 10.7494
21.6 2.275 10.7494
21.9 2.275 10.7494
22.2 2.275 10.7494
22.5 2.275 10.7494
22.8 2.275 10.7494
23.1 2.275 10.7494
23.4 2.275 10.7494
23.7 2.275 10.7494
24 2.275 10.7494
24.3 2.275 10.7494
24.6 2.275 10.7494
24.9 2.275 10.7494
25.2 2.275 10.7494
25.5 2.275 10.7494
25.8 2.275 10.7494
26.1 2.275 10.7494
26.4 2.275 10.7494
26.7 2.275 10.7494
27 2.275 10.7494
27.3 2.275 10.7494
27.6 2.275 10.7494
27.9 2.275 10.7494
28.2 2.275 10.7494
28.5 2.275 10.7494
28.8 2.275 10.7494
29.1 2.275 10.7494
29.4 2.275 10.7494
29.7 2.275 10.7494
30 2.275 10.7494
0 2.625 11.4844
0.3 2.625 11.4844
0.6 2.625 11.4844
0.9 2.625 11.4844
1.2 2.625 11.4844
1.5 2.625 11.4844
1.8 2.625 11.4844
2.1 2.625 11.4844
2.4 2.625 11.4844
2.7 2.625 11.4844
3 2.625 11.4844
3.3 2.625 11.4844
3.6 2.625 11.4844
3.9 2.625 11.4844
4.2 2.625 11.4844
4.5 2.625 11.4844
4.8 2.625 11.4844
5.1 2.625 11.4844
5.4 2.625 11.4844
5.7 2.625 11.4844
6 2.625 11.4844
6.3 2.625 11.4844
6.6 2.625 11.4844
6.9 2.625 11.4844
7.2 2.625 11.4844
7.5 2.625 11.4844
7.8 2.625 11.4844
8.1 2.625 11.4844
8.4 2.625 11.4844
8.7 2.625 11.4844
9 2.625 11.4844
9.3 2.625 11.4844
9.6 2.625 11.4844
9.9 2.625 11.4844
10.2 2.625 11.4844
10.5 2.625 11.4844
10.8 2.625 11.4844
11.1 2.625 11.4844
11.4 2.625 11.4844
11.7 2.625 11.4844
12 2.625 11.4844
12.3 2.625 11.4844
12.6 2.625 11.4844
12.9 2.625 11.4844
13.2 2.625 11.4844
13.5 2.625 11.4844
13.8 2.625 11.4844
14.1 2.625 11.4844
14.4 2.625 11.4844
14.7 2.625 11.4844
15 2.625 11.4844
15.3 2.625 11.4844
15.6 2.625 11.4844
15.9 2.625 11.4844
16.2 2.625 11.4844
16.5 2.625 11.4844
16.8 2.625 11.4844
17.1 2.625 11.4844
17.4 2.625 11.4844
17.7 2.625 11.4844
18 2.625 11.4844
18.3 2.625 11.4844
18.6 2.625 11.4844
18.9 2.625 11.4844
19.2 2.625 11.4844
19.5 2.625 11.4844
19.8 2.625 11.4844
20.1 2.625 11.4844
20.4 2.625 11.4844
20.7 2.625 11.4844
21 2.625 11.4844
21.3 2.625 11.4844
21.6 2.625 11.4844
21.9 2.625 11.4844
22.2 2.625 11.4844
22.5 2.625 11.4844
22.8 2.625 11.4844
23.1 2.625 11.4844
23.4 2.625 11.4844
23.7 2.625 11.4844
24 2.625 11.4844
24.3 2.625 11.4844
24.6 2.625 11.4844
24.9 2.625 11.4844
25.2 2.625 11.4844
25.5 2.625 11.4844
25.8 2.625 11.4844
26.1 2.625 11.4844
26.4 2.625 11.4844
26.7 2.625 11.4844
27 2.625 11.4844
27.3 2.625 11.4844
27.6 2.625 11.4844
27.9 2.625 11.4844
28.2 2.625 11.4844
28.5 2.625 11.4844
28.8 2.625 11.4844
29.1 2.625 11.4844
29.4 2.625 11.4844
29.7 2.625 11.4844
30 2.625 11.4844
0 2.975 11.9744
0.3 2.975 11.9744
0.6 2.975 11.9744
0.9 2.975 11.9744
1.2 2.975 11.9744
1.5 2.975 11.9744
1.8 2.975 11.9744
2.1 2.975 11.9744
2.4 2.975 11.9744
2.7 2.975 11.9744
3 2.975 11.9744
3.3 2.975 11.9744
3.6 2.975 11.9744
3.9 2.975 11.9744
4.2 2.975 11.9744
4.5 2.975 11.9744
4.8 2.975 11.9744
5.1 2.975 11.9744
5.4 2.975 11.9744
5.7 2.975 11.9744
6 2.975 11.9744
6.3 2.975 11.9744
6.6 2.975 11.9744
6.9 2.975 11.9744
7.2 2.975 11.9744
7.5 2.975 11.9744
7.8 2.975 11.9744
8.1 2.975 11.9744
8.4 2.975 11.9744
8.7 2.975 11.9744
9 2.975 11.9744
9.3 2.975 11.9744
9.6 2.975 11.9744
9.9 2.975 11.9744
10.2 2.975 11.9744
10.5 2.975 11.9744
10.8 2.975 11.9744
11.1 2.975 11.9744
11.4 2.975 11.9744
11.7 2.975 11.9744
12 2.975 11.9744
12.3 2.975 11.9744
12.6 2.975 11.9744
12.9 2.975 11.9744
13.2 2.975 11.9744
13.5 2.975 11.9744
13.8 2.975 11.9744
14.1 2.975 11.9744
14.4 2.975 11.9744
14.7 2.975 11.9744
15 2.975 11.9744
15.3 2.975 11.9744
15.6 2.975 11.9744
15.9 2.975 11.9744
16.2 2.975 11.9744
16.5 2.975 11.9744
16.8 2.975 11.9744
17.1 2.975 11.9744
17.4 2.975 11.9744
17.7 2.975 11.9744
18 2.975 11.9744
18.3 2.975 11.9744
18.6 2.975 11.9744
18.9 2.975 11.9744
19.2 2.975 11.9744
19.5 2.975 11.9744
19.8 2.975 11.9744
20.1 2.975 11.9744
20.4 2.975 11.9744
20.7 2.975 11.9744
21 2.975 11.9744
21.3 2.975 11.9744
21.6 2.975 11.9744
21.9 2.975 11.9744
22.2 2.975 11.9744
22.5 2.975 11.9744
22.8 2.975 11.9744
23.1 2.975 11.9744
23.4 2.975 11.9744
23.7 2.975 11.9744
24 2.975 11.9744
24.3 2.975 11.9744
24.6 2.975 11.9744
24.9 2.975 11.9744
25.2 2.975 11.9744
25.5 2.975 11.9744
25.8 2.975 11.9744
26.1 2.975 11.9744
26.4 2.975 11.9744
26.7 2.975 11.9744
27 2.975 11.9744
27.3 2.975 11.9744
27.6 2.975 11.9744
27.9 2.975 11.9744
28.2 2.975 11.9744
28.5 2.975 11.9744
28.8 2.975 11.9744
29.1 2.975 11.9744
29.4 2.975 11.9744
29.7 2.975 11.9744
30 2.975 11.9744
0 3.325 12.2194
0.3 3.325 12.2194
0.6 3.325 12.2194
0.9 3.325 12.2194
1.2 3.325 12.2194
1.5 3.325 12.2194
1.8 3.325 12.2194
2.1 3.325 12.2194
2.4 3.325 12.2194
2.7 3.325 12.2194
3 3.325 12.2194
3.3 3.325 12.2194
3.6 3.325 12.2194
3.9 3.325 12.2194
4.2 3.325 12.2194
4.5 3.325 12.2194
4.8 3.325 12.2194
5.1 3.325 12.2194
5.4 3.325 12.2194
5.7 3.325 12.2194
6 3.325 12.2194
6.3 3.325 12.2194
6.6 3.325 12.2194
6.9 3.325 12.2194
7.2 3.325 12.2194
7.5 3.325 12.2194
7.8 3.325 12.2194
8.1 3.325 12.2194
8.4 3.325 12.2194
8.7 3.325 12.2194
9 3.325 12.2194
9.3 3.325 12.2194
9.6 3.325 12.2194
9.9 3.325 12.2194
10.2 3.325 12.2194
10.5 3.325 12.2194
10.8 3.325 12.2194
11.1 3.325 12.2194
11.4 3.325 12.2194
11.7 3.325 12.2194
12 3.325 12.2194
12.3 3.325 12.2194
12.6 3.325 12.2194
12.9 3.325 12.2194
13.2 3.325 12.2194
13.5 3.325 12.2194
13.8 3.325 12.2194
14.1 3.325 12.2194
14.4 3.325 12.2194
14.7 3.325 12.2194
15 3.325 12.2194
15.3 3.325 12.2194
15.6 3.325 12.2194
15.9 3.325 12.2194
16.2 3.325 12.2194
16.5 3.325 12.2194
16.8 3.325 12.2194
17.1 3.325 12.2194
17.4 3.325 12.2194
17.7 3.325 12.2194
18 3.325 12.2194
18.3 3.325 12.2194
18.6 3.325 12.2194
18.9 3.325 12.2194
19.2 3.325 12.2194
19.5 3.325 12.2194
19.8 3.325 12.2194
20.1 3.325 12.2194
20.4 3.325 12.2194
20.7 3.325 12.2194
21 3.325 12.2194
21.3 3.325 12.2194
21.6 3.325 12.2194
21.9 3.325 12.2194
22.2 3.325 12.2194
22.5 3.325 12.2194
22.8 3.325 12.2194
23.1 3.325 12.2194
23.4 3.325 12.2194
23.7 3.325 12.2194
24 3.325 12.2194
24.3 3.325 12.2194
24.6 3.325 12.2194
24.9 3.325 12.2194
25.2 3.325 12.2194
25.5 3.325 12.2194
25.8 3.325 12.2194
26.1 3.325 12.2194
26.4 3.325 12.2194
26.7 3.325 12.2194
27 3.325 12.2194
27.3 3.325 12.2194
27.6 3.325 12.2194
27.9 3.325 12.2194
28.2 3.325 12.2194
28.5 3.325 12.2194
28.8 3.325 12.2194
29.1 3.325 12.2194
29.4 3.325 12.2194
29.7 3.325 12.2194
30 3.325 12.2194
0 3.675 12.2194
0.3 3.675 12.2194
0.6 3.675 12.2194
0.9 3.675 12.2194
1.2 3.675 12.2194
1.5 3.675 12.2194
1.8 3.675 12.2194
2.1 3.675 12.2194
2.4 3.675 12.2194
2.7 3.675 12.2194
3 3.675 12.2194
3.3 3.675 12.2194
3.6 3.675 12.2194
3.9 3.675 12.2194
4.2 3.675 12.2194
4.5 3.675 12.2194
4.8 3.675 12.2194
5.1 3.675 12.2194
5.4 3.675 12.2194
5.7 3.675 12.2194
6 3.675 12.2194
6.3 3.675 12.2194
6.6 3.675 12.2194
6.9 3.675 12.2194
7.2 3.675 12.2194
7.5 3.675 12.2194
7.8 3.675 12.2194
8.1 3.675 12.2194
8.4 3.675 12.2194
8.7 3.675 12.2194
9 3.675 12.2194
9.3 3.675 12.2194
9.6 3.675 12.2194
9.9 3.675 12.2194
10.2 3.675 12.2194
10.5 3.675 12.2194
10.8 3.675 12.2194
11.1 3.675 12.2194
11.4 3.675 12.2194
11.7 3.675 12.2194
12 3.675 12.2194
12.3 3.675 12.2194
12.6 3.675 12.2194
12.9 3.675 12.2194
13.2 3.675 12.2194
13.5 3.675 12.2194
13.8 3.675 12.2194
14.1 3.675 12.2194
14.4 3.675 12.2194
14.7 3.675 12.2194
15 3.675 12.2194
15.3 3.675 12.2194
15.6 3.675 12.2194
15.9 3.675 12.2194
16.2 3.675 12.2194
16.5 3.675 12.2194
16.8 3.675 12.2194
17.1 3.675 12.2194
17.4 3.675 12.2194
17.7 3.675 12.2194
18 3.675 12.2194
18.3 3.675 12.2194
18.6 3.675 12.2194
18.9 3.675 12.2194
19.2 3.675 12.2194
19.5 3.675 12.2194
19.8 3.675 12.2194
20.1 3.675 12.2194
20.4 3.675 12.2194
20.7 3.675 12.2194
21 3.675 12.2194
21.3 3.675 12.2194
21.6 3.675 12.2194
21.9 3.675 12.2194
22.2 3.675 12.2194
22.5 3.675 12.2194
22.8 3.675 12.2194
23.1 3.675 12.2194
23.4 3.675 12.2194
23.7 3.675 12.2194
24 3.675 12.2194
24.3 3.675 12.2194
24.6 3.675 12.2194
24.9 3.675 12.2194
25.2 3.675 12.2194
25.5 3.675 12.2194
25.8 3.675 12.2194
26.1 3.675 12.2194
26.4 3.675 12.2194
26.7 3.675 12.2194
27 3.675 12.2194
27.3 3.675 12.2194
27.6 3.675 12.2194
27.9 3.675 12.2194
28.2 3.675 12.2194
28.5 3.675 12.2194
28.8 3.675 12.2194
29.1 3.675 12.2194
29.4 3.675 12.2194
29.7 3.675 12.2194
30 3.675 12.2194
0 4.025 11.9744
0.3 4.025 11.9744
0.6 4.025 11.9744
0.9 4.025 11.9744
1.2 4.025 11.9744
1.5 4.025 11.9744
1.8 4.025 11.9744
2.1 4.025 11.9744
2.4 4.025 11.9744
2.7 4.025 11.9744
3 4.025 11.9744
3.3 4.025 11.9744
3.6 4.025 11.9744
3.9 4.025 11.9744
4.2 4.025 11.9744
4.5 4.025 11.9744
4.8 4.025 11.9744
5.1 4.025 11.9744
5.4 4.025 11.9744
5.7 4.025 11.9744
6 4.025 11.9744
6.3 4.025 11.9744
6.6 4.025 11.9744
6.9 4.025 11.9744
7.2 4.025 11.9744
7.5 4.025 11.9744
7.8 4.025 11.9744
8.1 4.025 11.9744
8.4 4.025 11.9744
8.7 4.025 11.9744
9 4.025 11.9744
9.3 4.025 11.9744
9.6 4.025 11.9744
9.9 4.025 11.9744
10.2 4.025 11.9744
10.5 4.025 11.9744
10.8 4.025 11.9744
11.1 4.025 11.9744
11.4 4.025 11.9744
11.7 4.025 11.9744
12 4.025 11.9744
12.3 4.025 11.9744
12.6 4.025 11.9744
12.9 4.025 11.9744
13.2 4.025 11.9744
13.5 4.025 11.9744
13.8 4.025 11.9744
14.1 4.025 11.9744
14.4 4.025 11.9744
14.7 4.025 11.9744
15 4.025 11.9744
15.3 4.025 11.9744
15.6 4.025 11.9744
15.9 4.025 11.9744
16.2 4.025 11.9744
16.5 4.025 11.9744
16.8 4.025 11.9744
17.1 4.025 11.9744
17.4 4.025 11.9744
17.7 4.025 11.9744
18 4.025 11.9744
18.3 4.025 11.9744
18.6 4.025 11.9744
18.9 4.025 11.9744
19.2 4.025 11.9744
19.5 4.025 11.9744
19.8 4.025 11.9744
20.1 4.025 11.9744
20.4 4.025 11.9744
20.7 4.025 11.9744
21 4.025 11.9744
21.3 4.025 11.9744
21.6 4.025 11.9744
21.9 4.025 11.9744
22.2 4.025 11.9744
22.5 4.025 11.9744
22.8 4.025 11.9744
23.1 4.025 11.9744
23.4 4.025 11.9744
23.7 4.025 11.9744
24 4.025 11.9744
24.3 4.025 11.9744
24.6 4.025 11.9744
24.9 4.025 11.9744
25.2 4.025 11.9744
25.5 4.025 11.9744
25.8 4.025 11.9744
26.1 4.025 11.9744
26.4 4.025 11.9744
26.7 4.025 11.9744
27 4.025 11.9744
27.3 4.025 11.9744
27.6 4.025 11.9744
27.9 4.025 11.9744
28.2 4.025 11.9744
28.5 4.025 11.9744
28.8 4.025 11.9744
29.1 4.025 11.9744
29.4 4.025 11.9744
29.7 4.025 11.9744
30 4.025 11.9744
0 4.375 11.4844
0.3 4.375 11.4844
0.6 4.375 11.4844
0.9 4.375 11.4844
1.2 4.375 11.4844
1.5 4.375 11.4844
1.8 4.375 11.4844
2.1 4.375 11.4844
2.4 4.375 11.4844
2.7 4.375 11.4844
3 4.375 11.4844
3.3 4.375 11.4844
3.6 4.375 11.4844
3.9 4.375 11.4844
4.2 4.375 11.4844
4.5 4.375 11.4844
4.8 4.375 11.4844
5.1 4.375 11.4844
5.4 4.375 11.4844
5.7 4.375 11.4844
6 4.375 11.4844
6.3 4.375 11.4844
6.6 4.375 11.4844
6.9 4.375 11.4844
7.2 4.375 11.4844
7.5 4.375 11.4844
7.8 4.375 11.4844
8.1 4.375 11.4844
8.4 4.375 11.4844
8.7 4.375 11.4844
9 4.375 11.4844
9.3 4.375 11.4844
9.6 4.375 11.4844
9.9 4.375 11.4844
10.2 4.375 11.4844
10.5 4.375 11.4844
10.8 4.375 11.4844
11.1 4.375 11.4844
11.4 4.375 11.4844
11.7 4.375 11.4844
12 4.375 11.4844
12.3 4.375 11.4844
12.6 4.375 11.4844
12.9 4.375 11.4844
13.2 4.375 11.4844
13.5 4.375 11.4844
13.8 4.375 11.4844
14.1 4.375 11.4844
14.4 4.375 11.4844
14.7 4.375 11.4844
15 4.375 11.4844
15.3 4.375 11.4844
15.6 4.375 11.4844
15.9 4.375 11.4844
16.2 4.375 11.4844
16.5 4.375 11.4844
16.8 4.375 11.4844
17.1 4.375 11.4844
17.4 4.375 11.4844
17.7 4.375 11.4844
18 4.375 11.4844
18.3 4.375 11.4844
18.6 4.375 11.4844
18.9 4.375 11.4844
19.2 4.375 11.4844
19.5 4.375 11.4844
19.8 4.375 11.4844
20.1 4.375 11.4844
20.4 4.375 11.4844
20.7 4.375 11.4844
21 4.375 11.4844
21.3 4.375 11.4844
21.6 4.375 11.4844
21.9 4.375 11.4844
22.2 4.375 11.4844
22.5 4.375 11.4844
22.8 4.375 11.4844
23.1 4.375 11.4844
23.4 4.375 11.4844
23.7 4.375 11.4844
24 4.375 11.4844
24.3 4.375 11.4844
24.6 4.375 11.4844
24.9 4.375 11.4844
25.2 4.375 11.4844
25.5 4.375 11.4844
25.8 4.375 11.4844
26.1 4.375 11.4844
26.4 4.375 11.4844
26.7 4.375 11.4844
27 4.375 11.4844
27.3 4.375 11.4844
27.6 4.375 11.4844
27.9 4.375 11.4844
28.2 4.375 11.4844
28.5 4.375 11.4844
28.8 4.375 11.4844
29.1 4.375 11.4844
29.4 4.375 11.4844
29.7 4.375 11.4844
30 4.375 11.4844
0 4.725 10.7494
0.3 4.725 10.7494
0.6 4.725 10.7494
0.9 4.725 10.7494
1.2 4.725 10.7494
1.5 4.725 10.7494
1.8 4.725 10.7494
2.1 4.725 10.7494
2.4 4.725 10.7494
2.7 4.725 10.7494
3 4.725 10.7494
3.3 4.725 10.7494
3.6 4.725 10.7494
3.9 4.725 10.7494
4.2 4.725 10.7494
4.5 4.725 10.7494
4.8 4.725 10.7494
5.1 4.725 10.7494
5.4 4.725 10.7494
5.7 4.725 10.7494
6 4.725 10.7494
6.3 4.725 10.7494
6.6 4.725 10.7494
6.9 4.725 10.7494
7.2 4.725 10.7494
7.5 4.725 10.7494
7.8 4.725 10.7494
8.1 4.725 10.7494
8.4 4.725 10.7494
8.7 4.725 10.7494
9 4.725 10.7494
9.3 4.725 10.7494
9.6 4.725 10.7494
9.9 4.725 10.7494
10.2 4.725 10.7494
10.5 4.725 10.7494
10.8 4.725 10.7494
11.1 4.725 10.7494
11.4 4.725 10.7494
11.7 4.725 10.7494
12 4.725 10.7494
12.3 4.725 10.7494
12.6 4.725 10.7494
12.9 4.725 10.7494
13.2 4.725 10.7494
13.5 4.725 10.7494
13.8 4.725 10.7494
14.1 4.725 10.7494
14.4 4.725 10.7494
14.7 4.725 10.7494
15 4.725 10.7494
15.3 4.725 10.7494
15.6 4.725 10.7494
15.9 4.725 10.7494
16.2 4.725 10.7494
16.5 4.725 10.7494
16.8 4.725 10.7494
17.1 4.725 10.7494
17.4 4.725 10.7494
17.7 4.725 10.7494
18 4.725 10.7494
18.3 4.725 10.7494
18.6 4.725 10.7494
18.9 4.725 10.7494
19.2 4.725 10.7494
19.5 4.725 10.7494
19.8 4.725 10.7494
20.1 4.725 10.7494
20.4 4.725 10.7494
20.7 4.725 10.7494
21 4.725 10.7494
21.3 4.725 10.7494
21.6 4.725 10.7494
21.9 4.725 10.7494
22.2 4.725 10.7494
22.5 4.725 10.7494
22.8 4.725 10.7494
23.1 4.725 10.7494
23.4 4.725 10.7494
23.7 4.725 10.7494
24 4.725 10.7494
24.3 4.725 10.7494
24.6 4.725 10.7494
24.9 4.725 10.7494
25.2 4.725 10.7494
25.5 4.725 10.7494
25.8 4.725 10.7494
26.1 4.725 10.7494
26.4 4.725 10.7494
26.7 4.725 10.7494
27 4.725 10.7494
27.3 4.725 10.7494
27.6 4.725 10.7494
27.9 4.725 10.7494
28.2 4.725 10.7494
28.5 4.725 10.7494
28.8 4.725 10.7494
29.1 4.725 10.7494
29.4 4.725 10.7494
29.7 4.725 10.7494
30 4.725 10.7494
0 5.075 9.76938
0.3 5.075 9.76938
0.6 5.075 9.76938
0.9 5.075 9.76938
1.2 5.075 9.76938
1.5 5.075 9.76938
1.8 5.075 9.76938
2.1 5.075 9.76938
2.4 5.075 9.76938
2.7 5.075 9.76938
3 5.075 9.76938
3.3 5.075 9.76938
3.6 5.075 9.76938
3.9 5.075 9.76938
4.2 5.075 9.76938
4.5 5.075 9.76938
4.8 5.075 9.76938
5.1 5.075 9.76938
5.4 5.075 9.76938
5.7 5.075 9.76938
6 5.075 9.76938
6.3 5.075 9.76938
6.6 5.075 9.76938
6.9 5.075 9.76938
7.2 5.075 9.76938
7.5 5.075 9.76938
7.8 5.075 9.76938
8.1 5.075 9.76938
8.4 5.075 9.76938
8.7 5.075 9.76938
9 5.075 9.76938
9.3 5.075 9.76938
9.6 5.075 9.76938
9.9 5.075 9.76938
10.2 5.075 9.76938
10.5 5.075 9.76938
10.8 5.075 9.76938
11.1 5.075 9.76938
11.4 5.075 9.76938
11.7 5.075 9.76938
12 5.075 9.76938
12.3 5.075 9.76938
12.6 5.075 9.76938
12.9 5.075 9.76938
13.2 5.075 9.76938
13.5 5.075 9.76938
13.8 5.075 9.76938
14.1 5.075 9.76938
14.4 5.075 9.76938
14.7 5.075 9.76938
15 5.075 9.76938
15.3 5.075 9.76938
15.6 5.075 9.76938
15.9 5.075 9.76938
16.2 5.075 9.76938
16.5 5.075 9.76938
16.8 5.075 9.76938
17.1 5.075 9.76938
17.4 5.075 9.76938
17.7 5.075 9.76938
18 5.075 9.76938
18.3 5.075 9.76938
18.6 5.075 9.76938
18.9 5.075 9.76938
19.2 5.075 9.76938
19.5 5.075 9.76938
19.8 5.075 9.76938
20.1 5.075 9.76938
20.4 5.075 9.76938
20.7 5.075 9.76938
21 5.075 9.76938
21.3 5.075 9.76938
21.6 5.075 9.76938
21.9 5.075 9.76938
22.2 5.075 9.76938
22.5 5.075 9.76938
22.8 5.075 9.76938
23.1 5.075 9.76938
23.4 5.075 9.76938
23.7 5.075 9.76938
24 5.075 9.76938
24.3 5.075 9.76938
24.6 5.075 9.76938
24.9 5.075 9.76938
25.2 5.075 9.76938
25.5 5.075 9.76938
25.8 5.075 9.76938
26.1 5.075 9.76938
26.4 5.075 9.76938
26.7 5.075 9.76938
27 5.075 9.76938
27.3 5.075 9.76938
27.6 5.075 9.76938
27.9 5.075 9.76938
28.2 5.075 9.76938
28.5 5.075 9.76938
28.8 5.075 9.76938
29.1 5.075 9.76938
29.4 5.075 9.76938
29.7 5.075 9.76938
30 5.075 9.76938
0 5.425 8.54438
0.3 5.425 8.54438
0.6 5.425 8.54438
0.9 5.425 8.54438
1.2 5.425 8.54438
1.5 5.425 8.54438
1.8 5.425 8.54438
2.1 5.425 8.54438
2.4 5.425 8.54438
2.7 5.425 8.54438
3 5.425 8.54438
3.3 5.425 8.54438
3.6 5.425 8.54438
3.9 5.425 8.54438
4.2 5.425 8.54438
4.5 5.425 8.54438
4.8 5.425 8.54438
5.1 5.425 8.54438
5.4 5.425 8.54438
5.7 5.425 8.54438
6 5.425 8.54438
6.3 5.425 8.54438
6.6 5.425 8.54438
6.9 5.425 8.54438
7.2 5.425 8.54438
7.5 5.425 8.54438
7.8 5.425 8.54438
8.1 5.425 8.54438
8.4 5.425 8.54438
8.7 5.425 8.54438
9 5.425 8.54438
9.3 5.425 8.54438
9.6 5.425 8.54438
9.9 5.425 8.54438
10.2 5.425 8.54438
10.5 5.425 8.54438
10.8 5.425 8.54438
11.1 5.425 8.54438
11.4 5.425 8.54438
11.7 5.425 8.54438
12 5.425 8.54438
12.3 5.425 8.54438
12.6 5.425 8.54438
12.9 5.425 8.54438
13.2 5.425 8.54438
13.5 5.425 8.54438
13.8 5.425 8.54438
14.1 5.425 8.54438
14.4 5.425 8.54438
14.7 5.425 8.54438
15 5.425 8.54438
15.3 5.425 8.54438
15.6 5.425 8.54438
15.9 5.425 8.54438
16.2 5.425 8.54438
16.5 5.425 8.54438
16.8 5.425 8.54438
17.1 5.425 8.54438
17.4 5.425 8.54438
17.7 5.425 8.54438
18 5.425 8.54438