title = "sample mesh"
Variables="x","y","u"
zone T="0",  i=101, j=22, f=point
0 0 0
0.3 0 0
0.6 0 0
0.9 0 0
1.2 0 0
1.5 0 0
1.8 0 0
2.1 0 0
2.4 0 0
2.7 0 0
3 0 0
3.3 0 0
3.6 0 0
3.9 0 0
4.2 0 0
4.5 0 0
4.8 0 0
5.1 0 0
5.4 0 0
5.7 0 0
6 0 0
6.3 0 0
6.6 0 0
6.9 0 0
7.2 0 0
7.5 0 0
7.8 0 0
8.1 0 0
8.4 0 0
8.7 0 0
9 0 0
9.3 0 0
9.6 0 0
9.9 0 0
10.2 0 0
10.5 0 0
10.8 0 0
11.1 0 0
11.4 0 0
11.7 0 0
12 0 0
12.3 0 0
12.6 0 0
12.9 0 0
13.2 0 0
13.5 0 0
13.8 0 0
14.1 0 0
14.4 0 0
14.7 0 0
15 0 0
15.3 0 0
15.6 0 0
15.9 0 0
16.2 0 0
16.5 0 0
16.8 0 0
17.1 0 0
17.4 0 0
17.7 0 0
18 0 0
18.3 0 0
18.6 0 0
18.9 0 0
19.2 0 0
19.5 0 0
19.8 0 0
20.1 0 0
20.4 0 0
20.7 0 0
21 0 0
21.3 0 0
21.6 0 0
21.9 0 0
22.2 0 0
22.5 0 0
22.8 0 0
23.1 0 0
23.4 0 0
23.7 0 0
24 0 0
24.3 0 0
24.6 0 0
24.9 0 0
25.2 0 0
25.5 0 0
25.8 0 0
26.1 0 0
26.4 0 0
26.7 0 0
27 0 0
27.3 0 0
27.6 0 0
27.9 0 0
28.2 0 0
28.5 0 0
28.8 0 0
29.1 0 0
29.4 0 0
29.7 0 0
30 0 0
0 0.175 1.19437
0.3 0.175 1.19425
0.6 0.175 1.19425
0.9 0.175 1.19425
1.2 0.175 1.19425
1.5 0.175 1.19425
1.8 0.175 1.19425
2.1 0.175 1.19425
2.4 0.175 1.19425
2.7 0.175 1.19425
3 0.175 1.19425
3.3 0.175 1.19425
3.6 0.175 1.19425
3.9 0.175 1.19425
4.2 0.175 1.19425
4.5 0.175 1.19425
4.8 0.175 1.19425
5.1 0.175 1.19425
5.4 0.175 1.19425
5.7 0.175 1.19425
6 0.175 1.19425
6.3 0.175 1.19425
6.6 0.175 1.19425
6.9 0.175 1.19425
7.2 0.175 1.19425
7.5 0.175 1.19425
7.8 0.175 1.19425
8.1 0.175 1.19425
8.4 0.175 1.19425
8.7 0.175 1.19425
9 0.175 1.19425
9.3 0.175 1.19425
9.6 0.175 1.19425
9.9 0.175 1.19425
10.2 0.175 1.19425
10.5 0.175 1.19425
10.8 0.175 1.19425
11.1 0.175 1.19425
11.4 0.175 1.19425
11.7 0.175 1.19425
12 0.175 1.19425
12.3 0.175 1.19425
12.6 0.175 1.19425
12.9 0.175 1.19425
13.2 0.175 1.19425
13.5 0.175 1.19425
13.8 0.175 1.19425
14.1 0.175 1.19425
14.4 0.175 1.19425
14.7 0.175 1.19425
15 0.175 1.19425
15.3 0.175 1.19425
15.6 0.175 1.19425
15.9 0.175 1.19425
16.2 0.175 1.19425
16.5 0.175 1.19425
16.8 0.175 1.19425
17.1 0.175 1.19425
17.4 0.175 1.19425
17.7 0.175 1.19425
18 0.175 1.19425
18.3 0.175 1.19425
18.6 0.175 1.19425
18.9 0.175 1.19425
19.2 0.175 1.19425
19.5 0.175 1.19425
19.8 0.175 1.19425
20.1 0.175 1.19425
20.4 0.175 1.19425
20.7 0.175 1.19425
21 0.175 1.19425
21.3 0.175 1.19425
21.6 0.175 1.19425
21.9 0.175 1.19425
22.2 0.175 1.19425
22.5 0.175 1.19425
22.8 0.175 1.19425
23.1 0.175 1.19425
23.4 0.175 1.19425
23.7 0.175 1.19425
24 0.175 1.19425
24.3 0.175 1.19425
24.6 0.175 1.19425
24.9 0.175 1.19425
25.2 0.175 1.19425
25.5 0.175 1.19425
25.8 0.175 1.19425
26.1 0.175 1.19425
26.4 0.175 1.19425
26.7 0.175 1.19425
27 0.175 1.19425
27.3 0.175 1.19425
27.6 0.175 1.19425
27.9 0.175 1.19425
28.2 0.175 1.19425
28.5 0.175 1.19425
28.8 0.175 1.19425
29.1 0.175 1.19425
29.4 0.175 1.19425
29.7 0.175 1.19425
30 0.175 1.19425
0 0.525 3.39937
0.3 0.525 3.39925
0.6 0.525 3.39925
0.9 0.525 3.39925
1.2 0.525 3.39922
1.5 0.525 3.39921
1.8 0.525 3.39922
2.1 0.525 3.39925
2.4 0.525 3.39925
2.7 0.525 3.39925
3 0.525 3.39925
3.3 0.525 3.39925
3.6 0.525 3.39925
3.9 0.525 3.39925
4.2 0.525 3.39925
4.5 0.525 3.39925
4.8 0.525 3.39925
5.1 0.525 3.39925
5.4 0.525 3.39925
5.7 0.525 3.39925
6 0.525 3.39925
6.3 0.525 3.39925
6.6 0.525 3.39925
6.9 0.525 3.39925
7.2 0.525 3.39925
7.5 0.525 3.39925
7.8 0.525 3.39925
8.1 0.525 3.39925
8.4 0.525 3.39925
8.7 0.525 3.39925
9 0.525 3.39925
9.3 0.525 3.39925
9.6 0.525 3.39925
9.9 0.525 3.39925
10.2 0.525 3.39925
10.5 0.525 3.39925
10.8 0.525 3.39925
11.1 0.525 3.39925
11.4 0.525 3.39925
11.7 0.525 3.39925
12 0.525 3.39925
12.3 0.525 3.39925
12.6 0.525 3.39925
12.9 0.525 3.39925
13.2 0.525 3.39925
13.5 0.525 3.39925
13.8 0.525 3.39925
14.1 0.525 3.39925
14.4 0.525 3.39925
14.7 0.525 3.39925
15 0.525 3.39925
15.3 0.525 3.39925
15.6 0.525 3.39925
15.9 0.525 3.39925
16.2 0.525 3.39925
16.5 0.525 3.39925
16.8 0.525 3.39925
17.1 0.525 3.39925
17.4 0.525 3.39925
17.7 0.525 3.39925
18 0.525 3.39925
18.3 0.525 3.39925
18.6 0.525 3.39925
18.9 0.525 3.39925
19.2 0.525 3.39925
19.5 0.525 3.39925
19.8 0.525 3.39925
20.1 0.525 3.39925
20.4 0.525 3.39925
20.7 0.525 3.39925
21 0.525 3.39925
21.3 0.525 3.39925
21.6 0.525 3.39925
21.9 0.525 3.39925
22.2 0.525 3.39925
22.5 0.525 3.39925
22.8 0.525 3.39925
23.1 0.525 3.39925
23.4 0.525 3.39925
23.7 0.525 3.39925
24 0.525 3.39925
24.3 0.525 3.39925
24.6 0.525 3.39925
24.9 0.525 3.39925
25.2 0.525 3.39925
25.5 0.525 3.39925
25.8 0.525 3.39925
26.1 0.525 3.39925
26.4 0.525 3.39925
26.7 0.525 3.39925
27 0.525 3.39925
27.3 0.525 3.39925
27.6 0.525 3.39925
27.9 0.525 3.39925
28.2 0.525 3.39925
28.5 0.525 3.39925
28.8 0.525 3.39925
29.1 0.525 3.39925
29.4 0.525 3.39925
29.7 0.525 3.39925
30 0.525 3.39925
0 0.875 5.35938
0.3 0.875 5.35925
0.6 0.875 5.35921
0.9 0.875 5.34294
1.2 0.875 5.25606
1.5 0.875 5.18541
1.8 0.875 5.25606
2.1 0.875 5.34294
2.4 0.875 5.35921
2.7 0.875 5.35925
3 0.875 5.3592
3.3 0.875 5.3591
3.6 0.875 5.35908
3.9 0.875 5.35916
4.2 0.875 5.35924
4.5 0.875 5.35925
4.8 0.875 5.35925
5.1 0.875 5.35925
5.4 0.875 5.35925
5.7 0.875 5.35925
6 0.875 5.35925
6.3 0.875 5.35925
6.6 0.875 5.35925
6.9 0.875 5.35925
7.2 0.875 5.35925
7.5 0.875 5.35925
7.8 0.875 5.35925
8.1 0.875 5.35925
8.4 0.875 5.35925
8.7 0.875 5.35925
9 0.875 5.35925
9.3 0.875 5.35925
9.6 0.875 5.35925
9.9 0.875 5.35925
10.2 0.875 5.35925
10.5 0.875 5.35925
10.8 0.875 5.35925
11.1 0.875 5.35925
11.4 0.875 5.35925
11.7 0.875 5.35925
12 0.875 5.35925
12.3 0.875 5.35925
12.6 0.875 5.35925
12.9 0.875 5.35925
13.2 0.875 5.35925
13.5 0.875 5.35925
13.8 0.875 5.35925
14.1 0.875 5.35925
14.4 0.875 5.35925
14.7 0.875 5.35925
15 0.875 5.35925
15.3 0.875 5.35925
15.6 0.875 5.35925
15.9 0.875 5.35925
16.2 0.875 5.35925
16.5 0.875 5.35925
16.8 0.875 5.35925
17.1 0.875 5.35925
17.4 0.875 5.35925
17.7 0.875 5.35925
18 0.875 5.35925
18.3 0.875 5.35925
18.6 0.875 5.35925
18.9 0.875 5.35925
19.2 0.875 5.35925
19.5 0.875 5.35925
19.8 0.875 5.35925
20.1 0.875 5.35925
20.4 0.875 5.35925
20.7 0.875 5.35925
21 0.875 5.35925
21.3 0.875 5.35925
21.6 0.875 5.35925
21.9 0.875 5.35925
22.2 0.875 5.35925
22.5 0.875 5.35925
22.8 0.875 5.35925
23.1 0.875 5.35925
23.4 0.875 5.35925
23.7 0.875 5.35925
24 0.875 5.35925
24.3 0.875 5.35925
24.6 0.875 5.35925
24.9 0.875 5.35925
25.2 0.875 5.35925
25.5 0.875 5.35925
25.8 0.875 5.35925
26.1 0.875 5.35925
26.4 0.875 5.35925
26.7 0.875 5.35925
27 0.875 5.35925
27.3 0.875 5.35925
27.6 0.875 5.35925
27.9 0.875 5.35925
28.2 0.875 5.35925
28.5 0.875 5.35925
28.8 0.875 5.35925
29.1 0.875 5.35925
29.4 0.875 5.35925
29.7 0.875 5.35925
30 0.875 5.35925
0 1.225 7.07437
0.3 1.225 7.07424
0.6 1.225 7.0406
0.9 1.225 6.61513
1.2 1.225 5.90516
1.5 1.225 5.58705
1.8 1.225 5.90516
2.1 1.225 6.61513
2.4 1.225 7.0406
2.7 1.225 7.05667
3 1.225 6.8588
3.3 1.225 6.49997
3.6 1.225 6.41775
3.9 1.225 6.74073
4.2 1.225 7.02072
4.5 1.225 7.07414
4.8 1.225 7.07425
5.1 1.225 7.07425
5.4 1.225 7.07425
5.7 1.225 7.07425
6 1.225 7.07425
6.3 1.225 7.07425
6.6 1.225 7.07425
6.9 1.225 7.07425
7.2 1.225 7.07425
7.5 1.225 7.07425
7.8 1.225 7.07425
8.1 1.225 7.07425
8.4 1.225 7.07425
8.7 1.225 7.07425
9 1.225 7.07425
9.3 1.225 7.07425
9.6 1.225 7.07425
9.9 1.225 7.07425
10.2 1.225 7.07425
10.5 1.225 7.07425
10.8 1.225 7.07425
11.1 1.225 7.07425
11.4 1.225 7.07425
11.7 1.225 7.07425
12 1.225 7.07425
12.3 1.225 7.07425
12.6 1.225 7.07425
12.9 1.225 7.07425
13.2 1.225 7.07425
13.5 1.225 7.07425
13.8 1.225 7.07425
14.1 1.225 7.07425
14.4 1.225 7.07425
14.7 1.225 7.07425
15 1.225 7.07425
15.3 1.225 7.07425
15.6 1.225 7.07425
15.9 1.225 7.07425
16.2 1.225 7.07425
16.5 1.225 7.07425
16.8 1.225 7.07425
17.1 1.225 7.07425
17.4 1.225 7.07425
17.7 1.225 7.07425
18 1.225 7.07425
18.3 1.225 7.07425
18.6 1.225 7.07425
18.9 1.225 7.07425
19.2 1.225 7.07425
19.5 1.225 7.07425
19.8 1.225 7.07425
20.1 1.225 7.07425
20.4 1.225 7.07425
20.7 1.225 7.07425
21 1.225 7.07425
21.3 1.225 7.07425
21.6 1.225 7.07425
21.9 1.225 7.07425
22.2 1.225 7.07425
22.5 1.225 7.07425
22.8 1.225 7.07425
23.1 1.225 7.07425
23.4 1.225 7.07425
23.7 1.225 7.07425
24 1.225 7.07425
24.3 1.225 7.07425
24.6 1.225 7.07425
24.9 1.225 7.07425
25.2 1.225 7.07425
25.5 1.225 7.07425
25.8 1.225 7.07425
26.1 1.225 7.07425
26.4 1.225 7.07425
26.7 1.225 7.07425
27 1.225 7.07425
27.3 1.225 7.07425
27.6 1.225 7.07425
27.9 1.225 7.07425
28.2 1.225 7.07425
28.5 1.225 7.07425
28.8 1.225 7.07425
29.1 1.225 7.07425
29.4 1.225 7.07425
29.7 1.225 7.07425
30 1.225 7.07425
0 1.575 8.54437
0.3 1.575 8.54417
0.6 1.575 8.3136
0.9 1.575 7.03316
1.2 1.575 6.27628
1.5 1.575 6.56935
1.8 1.575 6.27628
2.1 1.575 7.03316
2.4 1.575 8.3135
2.7 1.575 8.25484
3 1.575 7.22319
3.3 1.575 6.49652
3.6 1.575 6.44816
3.9 1.575 6.89328
4.2 1.575 7.95459
4.5 1.575 8.52537
4.8 1.575 8.54424
5.1 1.575 8.54425
5.4 1.575 8.54425
5.7 1.575 8.54425
6 1.575 8.54425
6.3 1.575 8.54425
6.6 1.575 8.54425
6.9 1.575 8.54425
7.2 1.575 8.54425
7.5 1.575 8.54425
7.8 1.575 8.54425
8.1 1.575 8.54425
8.4 1.575 8.54425
8.7 1.575 8.54425
9 1.575 8.54425
9.3 1.575 8.54425
9.6 1.575 8.54425
9.9 1.575 8.54425
10.2 1.575 8.54425
10.5 1.575 8.54425
10.8 1.575 8.54425
11.1 1.575 8.54425
11.4 1.575 8.54425
11.7 1.575 8.54425
12 1.575 8.54425
12.3 1.575 8.54425
12.6 1.575 8.54425
12.9 1.575 8.54425
13.2 1.575 8.54425
13.5 1.575 8.54425
13.8 1.575 8.54425
14.1 1.575 8.54425
14.4 1.575 8.54425
14.7 1.575 8.54425
15 1.575 8.54425
15.3 1.575 8.54425
15.6 1.575 8.54425
15.9 1.575 8.54425
16.2 1.575 8.54425
16.5 1.575 8.54425
16.8 1.575 8.54425
17.1 1.575 8.54425
17.4 1.575 8.54425
17.7 1.575 8.54425
18 1.575 8.54425
18.3 1.575 8.54425
18.6 1.575 8.54425
18.9 1.575 8.54425
19.2 1.575 8.54425
19.5 1.575 8.54425
19.8 1.575 8.54425
20.1 1.575 8.54425
20.4 1.575 8.54425
20.7 1.575 8.54425
21 1.575 8.54425
21.3 1.575 8.54425
21.6 1.575 8.54425
21.9 1.575 8.54425
22.2 1.575 8.54425
22.5 1.575 8.54425
22.8 1.575 8.54425
23.1 1.575 8.54425
23.4 1.575 8.54425
23.7 1.575 8.54425
24 1.575 8.54425
24.3 1.575 8.54425
24.6 1.575 8.54425
24.9 1.575 8.54425
25.2 1.575 8.54425
25.5 1.575 8.54425
25.8 1.575 8.54425
26.1 1.575 8.54425
26.4 1.575 8.54425
26.7 1.575 8.54425
27 1.575 8.54425
27.3 1.575 8.54425
27.6 1.575 8.54425
27.9 1.575 8.54425
28.2 1.575 8.54425
28.5 1.575 8.54425
28.8 1.575 8.54425
29.1 1.575 8.54425
29.4 1.575 8.54425
29.7 1.575 8.54425
30 1.575 8.54425
0 1.925 9.76938
0.3 1.925 9.76912
0.6 1.925 9.38714
0.9 1.925 7.5654
1.2 1.925 7.0954
1.5 1.925 8.06531
1.8 1.925 7.0954
2.1 1.925 7.5654
2.4 1.925 9.38685
2.7 1.925 8.9315
3 1.925 7.2522
3.3 1.925 7.37431
3.6 1.925 7.74779
3.9 1.925 7.056
4.2 1.925 8.28254
4.5 1.925 9.6895
4.8 1.925 9.76922
5.1 1.925 9.76925
5.4 1.925 9.76925
5.7 1.925 9.76925
6 1.925 9.76925
6.3 1.925 9.76925
6.6 1.925 9.76925
6.9 1.925 9.76925
7.2 1.925 9.76925
7.5 1.925 9.76925
7.8 1.925 9.76925
8.1 1.925 9.76925
8.4 1.925 9.76925
8.7 1.925 9.76925
9 1.925 9.76925
9.3 1.925 9.76925
9.6 1.925 9.76925
9.9 1.925 9.76925
10.2 1.925 9.76925
10.5 1.925 9.76925
10.8 1.925 9.76925
11.1 1.925 9.76925
11.4 1.925 9.76925
11.7 1.925 9.76925
12 1.925 9.76925
12.3 1.925 9.76925
12.6 1.925 9.76925
12.9 1.925 9.76925
13.2 1.925 9.76925
13.5 1.925 9.76925
13.8 1.925 9.76925
14.1 1.925 9.76925
14.4 1.925 9.76925
14.7 1.925 9.76925
15 1.925 9.76925
15.3 1.925 9.76925
15.6 1.925 9.76925
15.9 1.925 9.76925
16.2 1.925 9.76925
16.5 1.925 9.76925
16.8 1.925 9.76925
17.1 1.925 9.76925
17.4 1.925 9.76925
17.7 1.925 9.76925
18 1.925 9.76925
18.3 1.925 9.76925
18.6 1.925 9.76925
18.9 1.925 9.76925
19.2 1.925 9.76925
19.5 1.925 9.76925
19.8 1.925 9.76925
20.1 1.925 9.76925
20.4 1.925 9.76925
20.7 1.925 9.76925
21 1.925 9.76925
21.3 1.925 9.76925
21.6 1.925 9.76925
21.9 1.925 9.76925
22.2 1.925 9.76925
22.5 1.925 9.76925
22.8 1.925 9.76925
23.1 1.925 9.76925
23.4 1.925 9.76925
23.7 1.925 9.76925
24 1.925 9.76925
24.3 1.925 9.76925
24.6 1.925 9.76925
24.9 1.925 9.76925
25.2 1.925 9.76925
25.5 1.925 9.76925
25.8 1.925 9.76925
26.1 1.925 9.76925
26.4 1.925 9.76925
26.7 1.925 9.76925
27 1.925 9.76925
27.3 1.925 9.76925
27.6 1.925 9.76925
27.9 1.925 9.76925
28.2 1.925 9.76925
28.5 1.925 9.76925
28.8 1.925 9.76925
29.1 1.925 9.76925
29.4 1.925 9.76925
29.7 1.925 9.76925
30 1.925 9.76925
0 2.275 10.7494
0.3 2.275 10.7492
0.6 2.275 10.5393
0.9 2.275 9.18233
1.2 2.275 8.04712
1.5 2.275 8.05901
1.8 2.275 8.04712
2.1 2.275 9.18233
2.4 2.275 10.539
2.7 2.275 9.8796
3 2.275 8.03703
3.3 2.275 8.00103
3.6 2.275 8.3514
3.9 2.275 7.77722
4.2 2.275 9.18893
4.5 2.275 10.6684
4.8 2.275 10.7492
5.1 2.275 10.7492
5.4 2.275 10.7492
5.7 2.275 10.7493
6 2.275 10.7493
6.3 2.275 10.7493
6.6 2.275 10.7493
6.9 2.275 10.7493
7.2 2.275 10.7493
7.5 2.275 10.7493
7.8 2.275 10.7493
8.1 2.275 10.7493
8.4 2.275 10.7493
8.7 2.275 10.7493
9 2.275 10.7493
9.3 2.275 10.7493
9.6 2.275 10.7493
9.9 2.275 10.7493
10.2 2.275 10.7493
10.5 2.275 10.7493
10.8 2.275 10.7493
11.1 2.275 10.7493
11.4 2.275 10.7493
11.7 2.275 10.7493
12 2.275 10.7493
12.3 2.275 10.7493
12.6 2.275 10.7493
12.9 2.275 10.7493
13.2 2.275 10.7493
13.5 2.275 10.7493
13.8 2.275 10.7493
14.1 2.275 10.7493
14.4 2.275 10.7493
14.7 2.275 10.7493
15 2.275 10.7493
15.3 2.275 10.7493
15.6 2.275 10.7493
15.9 2.275 10.7493
16.2 2.275 10.7493
16.5 2.275 10.7493
16.8 2.275 10.7493
17.1 2.275 10.7493
17.4 2.275 10.7493
17.7 2.275 10.7493
18 2.275 10.7493
18.3 2.275 10.7493
18.6 2.275 10.7493
18.9 2.275 10.7493
19.2 2.275 10.7493
19.5 2.275 10.7493
19.8 2.275 10.7493
20.1 2.275 10.7493
20.4 2.275 10.7493
20.7 2.275 10.7493
21 2.275 10.7493
21.3 2.275 10.7493
21.6 2.275 10.7493
21.9 2.275 10.7493
22.2 2.275 10.7493
22.5 2.275 10.7493
22.8 2.275 10.7493
23.1 2.275 10.7493
23.4 2.275 10.7493
23.7 2.275 10.7493
24 2.275 10.7493
24.3 2.275 10.7493
24.6 2.275 10.7493
24.9 2.275 10.7493
25.2 2.275 10.7493
25.5 2.275 10.7493
25.8 2.275 10.7493
26.1 2.275 10.7493
26.4 2.275 10.7493
26.7 2.275 10.7493
27 2.275 10.7493
27.3 2.275 10.7493
27.6 2.275 10.7493
27.9 2.275 10.7493
28.2 2.275 10.7493
28.5 2.275 10.7493
28.8 2.275 10.7493
29.1 2.275 10.7493
29.4 2.275 10.7493
29.7 2.275 10.7493
30 2.275 10.7493
0 2.625 11.4844
0.3 2.625 11.4842
0.6 2.625 11.4593
0.9 2.625 11.0451
1.2 2.625 10.1865
1.5 2.625 9.71726
1.8 2.625 10.1865
2.1 2.625 11.0451
2.4 2.625 11.4592
2.7 2.625 11.1593
3 2.625 9.91136
3.3 2.625 8.91429
3.6 2.625 8.81591
3.9 2.625 9.48233
4.2 2.625 10.8087
4.5 2.625 11.4642
4.8 2.625 11.4842
5.1 2.625 11.4842
5.4 2.625 11.4842
5.7 2.625 11.4843
6 2.625 11.4843
6.3 2.625 11.4843
6.6 2.625 11.4843
6.9 2.625 11.4843
7.2 2.625 11.4843
7.5 2.625 11.4843
7.8 2.625 11.4843
8.1 2.625 11.4843
8.4 2.625 11.4843
8.7 2.625 11.4843
9 2.625 11.4843
9.3 2.625 11.4843
9.6 2.625 11.4843
9.9 2.625 11.4843
10.2 2.625 11.4843
10.5 2.625 11.4843
10.8 2.625 11.4843
11.1 2.625 11.4843
11.4 2.625 11.4843
11.7 2.625 11.4843
12 2.625 11.4843
12.3 2.625 11.4843
12.6 2.625 11.4843
12.9 2.625 11.4843
13.2 2.625 11.4843
13.5 2.625 11.4843
13.8 2.625 11.4843
14.1 2.625 11.4843
14.4 2.625 11.4843
14.7 2.625 11.4843
15 2.625 11.4843
15.3 2.625 11.4843
15.6 2.625 11.4843
15.9 2.625 11.4843
16.2 2.625 11.4843
16.5 2.625 11.4843
16.8 2.625 11.4843
17.1 2.625 11.4843
17.4 2.625 11.4843
17.7 2.625 11.4843
18 2.625 11.4843
18.3 2.625 11.4843
18.6 2.625 11.4843
18.9 2.625 11.4843
19.2 2.625 11.4843
19.5 2.625 11.4843
19.8 2.625 11.4843
20.1 2.625 11.4843
20.4 2.625 11.4843
20.7 2.625 11.4843
21 2.625 11.4843
21.3 2.625 11.4843
21.6 2.625 11.4843
21.9 2.625 11.4843
22.2 2.625 11.4843
22.5 2.625 11.4843
22.8 2.625 11.4843
23.1 2.625 11.4843
23.4 2.625 11.4843
23.7 2.625 11.4843
24 2.625 11.4843
24.3 2.625 11.4843
24.6 2.625 11.4843
24.9 2.625 11.4843
25.2 2.625 11.4843
25.5 2.625 11.4843
25.8 2.625 11.4843
26.1 2.625 11.4843
26.4 2.625 11.4843
26.7 2.625 11.4843
27 2.625 11.4843
27.3 2.625 11.4843
27.6 2.625 11.4843
27.9 2.625 11.4843
28.2 2.625 11.4843
28.5 2.625 11.4843
28.8 2.625 11.4843
29.1 2.625 11.4843
29.4 2.625 11.4843
29.7 2.625 11.4843
30 2.625 11.4843
0 2.975 11.9744
0.3 2.975 11.9743
0.6 2.975 11.9742
0.9 2.975 11.9664
1.2 2.975 11.9068
1.5 2.975 11.855
1.8 2.975 11.9068
2.1 2.975 11.9664
2.4 2.975 11.9742
2.7 2.975 11.953
3 2.975 11.7021
3.3 2.975 11.231
3.6 2.975 11.1218
3.9 2.975 11.5485
4.2 2.975 11.9085
4.5 2.975 11.9741
4.8 2.975 11.9742
5.1 2.975 11.9742
5.4 2.975 11.9743
5.7 2.975 11.9742
6 2.975 11.9742
6.3 2.975 11.9742
6.6 2.975 11.9742
6.9 2.975 11.9742
7.2 2.975 11.9742
7.5 2.975 11.9742
7.8 2.975 11.9742
8.1 2.975 11.9742
8.4 2.975 11.9742
8.7 2.975 11.9742
9 2.975 11.9742
9.3 2.975 11.9742
9.6 2.975 11.9742
9.9 2.975 11.9742
10.2 2.975 11.9742
10.5 2.975 11.9742
10.8 2.975 11.9742
11.1 2.975 11.9742
11.4 2.975 11.9742
11.7 2.975 11.9742
12 2.975 11.9742
12.3 2.975 11.9742
12.6 2.975 11.9742
12.9 2.975 11.9742
13.2 2.975 11.9742
13.5 2.975 11.9742
13.8 2.975 11.9742
14.1 2.975 11.9742
14.4 2.975 11.9742
14.7 2.975 11.9742
15 2.975 11.9742
15.3 2.975 11.9742
15.6 2.975 11.9742
15.9 2.975 11.9742
16.2 2.975 11.9742
16.5 2.975 11.9742
16.8 2.975 11.9742
17.1 2.975 11.9742
17.4 2.975 11.9742
17.7 2.975 11.9742
18 2.975 11.9742
18.3 2.975 11.9742
18.6 2.975 11.9742
18.9 2.975 11.9742
19.2 2.975 11.9742
19.5 2.975 11.9742
19.8 2.975 11.9742
20.1 2.975 11.9742
20.4 2.975 11.9742
20.7 2.975 11.9742
21 2.975 11.9742
21.3 2.975 11.9742
21.6 2.975 11.9742
21.9 2.975 11.9742
22.2 2.975 11.9742
22.5 2.975 11.9742
22.8 2.975 11.9742
23.1 2.975 11.9742
23.4 2.975 11.9742
23.7 2.975 11.9742
24 2.975 11.9742
24.3 2.975 11.9742
24.6 2.975 11.9742
24.9 2.975 11.9742
25.2 2.975 11.9742
25.5 2.975 11.9742
25.8 2.975 11.9742
26.1 2.975 11.9742
26.4 2.975 11.9742
26.7 2.975 11.9742
27 2.975 11.9742
27.3 2.975 11.9742
27.6 2.975 11.9742
27.9 2.975 11.9742
28.2 2.975 11.9742
28.5 2.975 11.9742
28.8 2.975 11.9742
29.1 2.975 11.9742
29.4 2.975 11.9743
29.7 2.975 11.9743
30 2.975 11.9743
0 3.325 12.2194
0.3 3.325 12.2193
0.6 3.325 12.2192
0.9 3.325 12.2192
1.2 3.325 12.2192
1.5 3.325 12.2192
1.8 3.325 12.2192
2.1 3.325 12.2192
2.4 3.325 12.2192
2.7 3.325 12.2192
3 3.325 12.2192
3.3 3.325 12.2191
3.6 3.325 12.219
3.9 3.325 12.2191
4.2 3.325 12.2192
4.5 3.325 12.2192
4.8 3.325 12.2192
5.1 3.325 12.2193
5.4 3.325 12.2192
5.7 3.325 12.2193
6 3.325 12.2193
6.3 3.325 12.2193
6.6 3.325 12.2193
6.9 3.325 12.2193
7.2 3.325 12.2193
7.5 3.325 12.2193
7.8 3.325 12.2193
8.1 3.325 12.2193
8.4 3.325 12.2193
8.7 3.325 12.2193
9 3.325 12.2193
9.3 3.325 12.2193
9.6 3.325 12.2193
9.9 3.325 12.2193
10.2 3.325 12.2193
10.5 3.325 12.2193
10.8 3.325 12.2193
11.1 3.325 12.2193
11.4 3.325 12.2193
11.7 3.325 12.2193
12 3.325 12.2193
12.3 3.325 12.2193
12.6 3.325 12.2193
12.9 3.325 12.2193
13.2 3.325 12.2193
13.5 3.325 12.2193
13.8 3.325 12.2193
14.1 3.325 12.2193
14.4 3.325 12.2193
14.7 3.325 12.2193
15 3.325 12.2193
15.3 3.325 12.2193
15.6 3.325 12.2193
15.9 3.325 12.2193
16.2 3.325 12.2193
16.5 3.325 12.2193
16.8 3.325 12.2193
17.1 3.325 12.2193
17.4 3.325 12.2193
17.7 3.325 12.2193
18 3.325 12.2193
18.3 3.325 12.2193
18.6 3.325 12.2193
18.9 3.325 12.2193
19.2 3.325 12.2193
19.5 3.325 12.2193
19.8 3.325 12.2193
20.1 3.325 12.2193
20.4 3.325 12.2193
20.7 3.325 12.2193
21 3.325 12.2193
21.3 3.325 12.2193
21.6 3.325 12.2193
21.9 3.325 12.2193
22.2 3.325 12.2193
22.5 3.325 12.2193
22.8 3.325 12.2193
23.1 3.325 12.2193
23.4 3.325 12.2193
23.7 3.325 12.2193
24 3.325 12.2193
24.3 3.325 12.2193
24.6 3.325 12.2193
24.9 3.325 12.2193
25.2 3.325 12.2193
25.5 3.325 12.2193
25.8 3.325 12.2193
26.1 3.325 12.2193
26.4 3.325 12.2193
26.7 3.325 12.2193
27 3.325 12.2193
27.3 3.325 12.2193
27.6 3.325 12.2193
27.9 3.325 12.2193
28.2 3.325 12.2193
28.5 3.325 12.2193
28.8 3.325 12.2193
29.1 3.325 12.2193
29.4 3.325 12.2193
29.7 3.325 12.2193
30 3.325 12.2193
0 3.675 12.2194
0.3 3.675 12.2193
0.6 3.675 12.2192
0.9 3.675 12.2192
1.2 3.675 12.2192
1.5 3.675 12.2192
1.8 3.675 12.2192
2.1 3.675 12.2192
2.4 3.675 12.2192
2.7 3.675 12.2192
3 3.675 12.2192
3.3 3.675 12.2191
3.6 3.675 12.219
3.9 3.675 12.2191
4.2 3.675 12.2192
4.5 3.675 12.2192
4.8 3.675 12.2192
5.1 3.675 12.2193
5.4 3.675 12.2192
5.7 3.675 12.2193
6 3.675 12.2193
6.3 3.675 12.2193
6.6 3.675 12.2193
6.9 3.675 12.2193
7.2 3.675 12.2193
7.5 3.675 12.2193
7.8 3.675 12.2193
8.1 3.675 12.2193
8.4 3.675 12.2193
8.7 3.675 12.2193
9 3.675 12.2193
9.3 3.675 12.2193
9.6 3.675 12.2193
9.9 3.675 12.2193
10.2 3.675 12.2193
10.5 3.675 12.2193
10.8 3.675 12.2193
11.1 3.675 12.2193
11.4 3.675 12.2193
11.7 3.675 12.2193
12 3.675 12.2193
12.3 3.675 12.2193
12.6 3.675 12.2193
12.9 3.675 12.2193
13.2 3.675 12.2193
13.5 3.675 12.2193
13.8 3.675 12.2193
14.1 3.675 12.2193
14.4 3.675 12.2193
14.7 3.675 12.2193
15 3.675 12.2193
15.3 3.675 12.2193
15.6 3.675 12.2193
15.9 3.675 12.2193
16.2 3.675 12.2193
16.5 3.675 12.2193
16.8 3.675 12.2193
17.1 3.675 12.2193
17.4 3.675 12.2193
17.7 3.675 12.2193
18 3.675 12.2193
18.3 3.675 12.2193
18.6 3.675 12.2193
18.9 3.675 12.2193
19.2 3.675 12.2193
19.5 3.675 12.2193
19.8 3.675 12.2193
20.1 3.675 12.2193
20.4 3.675 12.2193
20.7 3.675 12.2193
21 3.675 12.2193
21.3 3.675 12.2193
21.6 3.675 12.2193
21.9 3.675 12.2193
22.2 3.675 12.2193
22.5 3.675 12.2193
22.8 3.675 12.2193
23.1 3.675 12.2193
23.4 3.675 12.2193
23.7 3.675 12.2193
24 3.675 12.2193
24.3 3.675 12.2193
24.6 3.675 12.2193
24.9 3.675 12.2193
25.2 3.675 12.2193
25.5 3.675 12.2193
25.8 3.675 12.2193
26.1 3.675 12.2193
26.4 3.675 12.2193
26.7 3.675 12.2193
27 3.675 12.2193
27.3 3.675 12.2193
27.6 3.675 12.2193
27.9 3.675 12.2193
28.2 3.675 12.2193
28.5 3.675 12.2193
28.8 3.675 12.2193
29.1 3.675 12.2193
29.4 3.675 12.2193
29.7 3.675 12.2193
30 3.675 12.2193
0 4.025 11.9744
0.3 4.025 11.9743
0.6 4.025 11.9742
0.9 4.025 11.9664
1.2 4.025 11.9068
1.5 4.025 11.855
1.8 4.025 11.9068
2.1 4.025 11.9664
2.4 4.025 11.9742
2.7 4.025 11.953
3 4.025 11.7021
3.3 4.025 11.231
3.6 4.025 11.1218
3.9 4.025 11.5485
4.2 4.025 11.9085
4.5 4.025 11.9741
4.8 4.025 11.9742
5.1 4.025 11.9742
5.4 4.025 11.9743
5.7 4.025 11.9742
6 4.025 11.9742
6.3 4.025 11.9742
6.6 4.025 11.9742
6.9 4.025 11.9742
7.2 4.025 11.9742
7.5 4.025 11.9742
7.8 4.025 11.9742
8.1 4.025 11.9742
8.4 4.025 11.9742
8.7 4.025 11.9742
9 4.025 11.9742
9.3 4.025 11.9742
9.6 4.025 11.9742
9.9 4.025 11.9742
10.2 4.025 11.9742
10.5 4.025 11.9742
10.8 4.025 11.9742
11.1 4.025 11.9742
11.4 4.025 11.9742
11.7 4.025 11.9742
12 4.025 11.9742
12.3 4.025 11.9742
12.6 4.025 11.9742
12.9 4.025 11.9742
13.2 4.025 11.9742
13.5 4.025 11.9742
13.8 4.025 11.9742
14.1 4.025 11.9742
14.4 4.025 11.9742
14.7 4.025 11.9742
15 4.025 11.9742
15.3 4.025 11.9742
15.6 4.025 11.9742
15.9 4.025 11.9742
16.2 4.025 11.9742
16.5 4.025 11.9742
16.8 4.025 11.9742
17.1 4.025 11.9742
17.4 4.025 11.9742
17.7 4.025 11.9742
18 4.025 11.9742
18.3 4.025 11.9742
18.6 4.025 11.9742
18.9 4.025 11.9742
19.2 4.025 11.9742
19.5 4.025 11.9742
19.8 4.025 11.9742
20.1 4.025 11.9742
20.4 4.025 11.9742
20.7 4.025 11.9742
21 4.025 11.9742
21.3 4.025 11.9742
21.6 4.025 11.9742
21.9 4.025 11.9742
22.2 4.025 11.9742
22.5 4.025 11.9742
22.8 4.025 11.9742
23.1 4.025 11.9742
23.4 4.025 11.9742
23.7 4.025 11.9742
24 4.025 11.9742
24.3 4.025 11.9742
24.6 4.025 11.9742
24.9 4.025 11.9742
25.2 4.025 11.9742
25.5 4.025 11.9742
25.8 4.025 11.9742
26.1 4.025 11.9742
26.4 4.025 11.9742
26.7 4.025 11.9742
27 4.025 11.9742
27.3 4.025 11.9742
27.6 4.025 11.9742
27.9 4.025 11.9742
28.2 4.025 11.9742
28.5 4.025 11.9742
28.8 4.025 11.9742
29.1 4.025 11.9742
29.4 4.025 11.9743
29.7 4.025 11.9743
30 4.025 11.9743
0 4.375 11.4844
0.3 4.375 11.4842
0.6 4.375 11.4593
0.9 4.375 11.0451
1.2 4.375 10.1865
1.5 4.375 9.71726
1.8 4.375 10.1865
2.1 4.375 11.0451
2.4 4.375 11.4592
2.7 4.375 11.1593
3 4.375 9.91136
3.3 4.375 8.91429
3.6 4.375 8.81591
3.9 4.375 9.48233
4.2 4.375 10.8087
4.5 4.375 11.4642
4.8 4.375 11.4842
5.1 4.375 11.4842
5.4 4.375 11.4842
5.7 4.375 11.4843
6 4.375 11.4843
6.3 4.375 11.4843
6.6 4.375 11.4843
6.9 4.375 11.4843
7.2 4.375 11.4843
7.5 4.375 11.4843
7.8 4.375 11.4843
8.1 4.375 11.4843
8.4 4.375 11.4843
8.7 4.375 11.4843
9 4.375 11.4843
9.3 4.375 11.4843
9.6 4.375 11.4843
9.9 4.375 11.4843
10.2 4.375 11.4843
10.5 4.375 11.4843
10.8 4.375 11.4843
11.1 4.375 11.4843
11.4 4.375 11.4843
11.7 4.375 11.4843
12 4.375 11.4843
12.3 4.375 11.4843
12.6 4.375 11.4843
12.9 4.375 11.4843
13.2 4.375 11.4843
13.5 4.375 11.4843
13.8 4.375 11.4843
14.1 4.375 11.4843
14.4 4.375 11.4843
14.7 4.375 11.4843
15 4.375 11.4843
15.3 4.375 11.4843
15.6 4.375 11.4843
15.9 4.375 11.4843
16.2 4.375 11.4843
16.5 4.375 11.4843
16.8 4.375 11.4843
17.1 4.375 11.4843
17.4 4.375 11.4843
17.7 4.375 11.4843
18 4.375 11.4843
18.3 4.375 11.4843
18.6 4.375 11.4843
18.9 4.375 11.4843
19.2 4.375 11.4843
19.5 4.375 11.4843
19.8 4.375 11.4843
20.1 4.375 11.4843
20.4 4.375 11.4843
20.7 4.375 11.4843
21 4.375 11.4843
21.3 4.375 11.4843
21.6 4.375 11.4843
21.9 4.375 11.4843
22.2 4.375 11.4843
22.5 4.375 11.4843
22.8 4.375 11.4843
23.1 4.375 11.4843
23.4 4.375 11.4843
23.7 4.375 11.4843
24 4.375 11.4843
24.3 4.375 11.4843
24.6 4.375 11.4843
24.9 4.375 11.4843
25.2 4.375 11.4843
25.5 4.375 11.4843
25.8 4.375 11.4843
26.1 4.375 11.4843
26.4 4.375 11.4843
26.7 4.375 11.4843
27 4.375 11.4843
27.3 4.375 11.4843
27.6 4.375 11.4843
27.9 4.375 11.4843
28.2 4.375 11.4843
28.5 4.375 11.4843
28.8 4.375 11.4843
29.1 4.375 11.4843
29.4 4.375 11.4843
29.7 4.375 11.4843
30 4.375 11.4843
0 4.725 10.7494
0.3 4.725 10.7492
0.6 4.725 10.5393
0.9 4.725 9.18233
1.2 4.725 8.04712
1.5 4.725 8.05901
1.8 4.725 8.04712
2.1 4.725 9.18233
2.4 4.725 10.539
2.7 4.725 9.8796
3 4.725 8.03703
3.3 4.725 8.00103
3.6 4.725 8.3514
3.9 4.725 7.77722
4.2 4.725 9.18893
4.5 4.725 10.6684
4.8 4.725 10.7492
5.1 4.725 10.7492
5.4 4.725 10.7492
5.7 4.725 10.7493
6 4.725 10.7493
6.3 4.725 10.7493
6.6 4.725 10.7493
6.9 4.725 10.7493
7.2 4.725 10.7493
7.5 4.725 10.7493
7.8 4.725 10.7493
8.1 4.725 10.7493
8.4 4.725 10.7493
8.7 4.725 10.7493
9 4.725 10.7493
9.3 4.725 10.7493
9.6 4.725 10.7493
9.9 4.725 10.7493
10.2 4.725 10.7493
10.5 4.725 10.7493
10.8 4.725 10.7493
11.1 4.725 10.7493
11.4 4.725 10.7493
11.7 4.725 10.7493
12 4.725 10.7493
12.3 4.725 10.7493
12.6 4.725 10.7493
12.9 4.725 10.7493
13.2 4.725 10.7493
13.5 4.725 10.7493
13.8 4.725 10.7493
14.1 4.725 10.7493
14.4 4.725 10.7493
14.7 4.725 10.7493
15 4.725 10.7493
15.3 4.725 10.7493
15.6 4.725 10.7493
15.9 4.725 10.7493
16.2 4.725 10.7493
16.5 4.725 10.7493
16.8 4.725 10.7493
17.1 4.725 10.7493
17.4 4.725 10.7493
17.7 4.725 10.7493
18 4.725 10.7493
18.3 4.725 10.7493
18.6 4.725 10.7493
18.9 4.725 10.7493
19.2 4.725 10.7493
19.5 4.725 10.7493
19.8 4.725 10.7493
20.1 4.725 10.7493
20.4 4.725 10.7493
20.7 4.725 10.7493
21 4.725 10.7493
21.3 4.725 10.7493
21.6 4.725 10.7493
21.9 4.725 10.7493
22.2 4.725 10.7493
22.5 4.725 10.7493
22.8 4.725 10.7493
23.1 4.725 10.7493
23.4 4.725 10.7493
23.7 4.725 10.7493
24 4.725 10.7493
24.3 4.725 10.7493
24.6 4.725 10.7493
24.9 4.725 10.7493
25.2 4.725 10.7493
25.5 4.725 10.7493
25.8 4.725 10.7493
26.1 4.725 10.7493
26.4 4.725 10.7493
26.7 4.725 10.7493
27 4.725 10.7493
27.3 4.725 10.7493
27.6 4.725 10.7493
27.9 4.725 10.7493
28.2 4.725 10.7493
28.5 4.725 10.7493
28.8 4.725 10.7493
29.1 4.725 10.7493
29.4 4.725 10.7493
29.7 4.725 10.7493
30 4.725 10.7493
0 5.075 9.76938
0.3 5.075 9.76912
0.6 5.075 9.38714
0.9 5.075 7.5654
1.2 5.075 7.0954
1.5 5.075 8.06531
1.8 5.075 7.0954
2.1 5.075 7.5654
2.4 5.075 9.38685
2.7 5.075 8.9315
3 5.075 7.2522
3.3 5.075 7.37431
3.6 5.075 7.74779
3.9 5.075 7.056
4.2 5.075 8.28254
4.5 5.075 9.6895
4.8 5.075 9.76922
5.1 5.075 9.76925
5.4 5.075 9.76925
5.7 5.075 9.76925
6 5.075 9.76925
6.3 5.075 9.76925
6.6 5.075 9.76925
6.9 5.075 9.76925
7.2 5.075 9.76925
7.5 5.075 9.76925
7.8 5.075 9.76925
8.1 5.075 9.76925
8.4 5.075 9.76925
8.7 5.075 9.76925
9 5.075 9.76925
9.3 5.075 9.76925
9.6 5.075 9.76925
9.9 5.075 9.76925
10.2 5.075 9.76925
10.5 5.075 9.76925
10.8 5.075 9.76925
11.1 5.075 9.76925
11.4 5.075 9.76925
11.7 5.075 9.76925
12 5.075 9.76925
12.3 5.075 9.76925
12.6 5.075 9.76925
12.9 5.075 9.76925
13.2 5.075 9.76925
13.5 5.075 9.76925
13.8 5.075 9.76925
14.1 5.075 9.76925
14.4 5.075 9.76925
14.7 5.075 9.76925
15 5.075 9.76925
15.3 5.075 9.76925
15.6 5.075 9.76925
15.9 5.075 9.76925
16.2 5.075 9.76925
16.5 5.075 9.76925
16.8 5.075 9.76925
17.1 5.075 9.76925
17.4 5.075 9.76925
17.7 5.075 9.76925
18 5.075 9.76925
18.3 5.075 9.76925
18.6 5.075 9.76925
18.9 5.075 9.76925
19.2 5.075 9.76925
19.5 5.075 9.76925
19.8 5.075 9.76925
20.1 5.075 9.76925
20.4 5.075 9.76925
20.7 5.075 9.76925
21 5.075 9.76925
21.3 5.075 9.76925
21.6 5.075 9.76925
21.9 5.075 9.76925
22.2 5.075 9.76925
22.5 5.075 9.76925
22.8 5.075 9.76925
23.1 5.075 9.76925
23.4 5.075 9.76925
23.7 5.075 9.76925
24 5.075 9.76925
24.3 5.075 9.76925
24.6 5.075 9.76925
24.9 5.075 9.76925
25.2 5.075 9.76925
25.5 5.075 9.76925
25.8 5.075 9.76925
26.1 5.075 9.76925
26.4 5.075 9.76925
26.7 5.075 9.76925
27 5.075 9.76925
27.3 5.075 9.76925
27.6 5.075 9.76925
27.9 5.075 9.76925
28.2 5.075 9.76925
28.5 5.075 9.76925
28.8 5.075 9.76925
29.1 5.075 9.76925
29.4 5.075 9.76925
29.7 5.075 9.76925
30 5.075 9.76925
0 5.425 8.54438
0.3 5.425 8.54417
0.6 5.425 8.3136
0.9 5.425 7.03316
1.2 5.425 6.27628
1.5 5.425 6.56935
1.8 5.425 6.27628
2.1 5.425 7.03316
2.4 5.425 8.3135
2.7 5.425 8.25484
3 5.425 7.22319
3.3 5.425 6.49652
3.6 5.425 6.44816
3.9 5.425 6.89328
4.2 5.425 7.95459
4.5 5.425 8.52537
4.8 5.425 8.54424
5.1 5.425 8.54425
5.4 5.425 8.54425
5.7 5.425 8.54425
6 5.425 8.54425
6.3 5.425 8.54425
6.6 5.425 8.54425
6.9 5.425 8.54425
7.2 5.425 8.54425
7.5 5.425 8.54425
7.8 5.425 8.54425
8.1 5.425 8.54425
8.4 5.425 8.54425
8.7 5.425 8.54425
9 5.425 8.54425
9.3 5.425 8.54425
9.6 5.425 8.54425
9.9 5.425 8.54425
10.2 5.425 8.54425
10.5 5.425 8.54425
10.8 5.425 8.54425
11.1 5.425 8.54425
11.4 5.425 8.54425
11.7 5.425 8.54425
12 5.425 8.54425
12.3 5.425 8.54425
12.6 5.425 8.54425
12.9 5.425 8.54425
13.2 5.425 8.54425
13.5 5.425 8.54425
13.8 5.425 8.54425
14.1 5.425 8.54425
14.4 5.425 8.54425
14.7 5.425 8.54425
15 5.425 8.54425
15.3 5.425 8.54425
15.6 5.425 8.54425
15.9 5.425 8.54425
16.2 5.425 8.54425
16.5 5.425 8.54425
16.8 5.425 8.54425
17.1 5.425 8.54425
17.4 5.425 8.54425
17.7 5.425 8.54425
18 5.425 8.54425
18.3 5.425 8.54425
18.6 5.425 8.54425